
    -----------------------------------------------------------------------
          Psi4: An Open-Source Ab Initio Electronic Structure Package
                               Psi4 1.3.2 release

                         Git: Rev {} zzzzzzz 


    R. M. Parrish, L. A. Burns, D. G. A. Smith, A. C. Simmonett,
    A. E. DePrince III, E. G. Hohenstein, U. Bozkaya, A. Yu. Sokolov,
    R. Di Remigio, R. M. Richard, J. F. Gonthier, A. M. James,
    H. R. McAlexander, A. Kumar, M. Saitow, X. Wang, B. P. Pritchard,
    P. Verma, H. F. Schaefer III, K. Patkowski, R. A. King, E. F. Valeev,
    F. A. Evangelista, J. M. Turney, T. D. Crawford, and C. D. Sherrill,
    J. Chem. Theory Comput. 13(7) pp 3185--3197 (2017).
    (doi: 10.1021/acs.jctc.7b00174)


                         Additional Contributions by
    P. Kraus, H. Kruse, M. H. Lechner, M. C. Schieber, R. A. Shaw,
    A. Alenaizan, R. Galvelis, Z. L. Glick, S. Lehtola, and J. P. Misiewicz

    -----------------------------------------------------------------------


    Psi4 started on: Tuesday, 10 May 2022 05:00PM

    Process ID: 47319
    Host:       atl1-1-02-012-5-l.pace.gatech.edu
    PSIDATADIR: /usr/local/pace-apps/manual/packages/psi4/1.3.2/intel-19.0.5/share/psi4
    Memory:     500.0 MiB
    Threads:    1
    
  ==> Input File <==

--------------------------------------------------------------------------
#PSI4 file for HOH opt

memory 10 GB

molecule mol {
0 1
H 
O 1 OH
H 2 OH 1 HOH

OH = 1
HOH = 104.5
}

set {
  scf_type df
  mp2_type df
  cc_type df
  freeze_core true
  basis cc-pvdz
}

optimize('ccsd(t)')
frequencies('ccsd(t)')

--------------------------------------------------------------------------

  Memory set to   9.313 GiB by Python driver.
gradient() will perform analytic gradient computation.
    Method 'CCSD(T)' requires SCF_TYPE = DISK_DF, setting.

*** tstart() called on atl1-1-02-012-5-l.pace.gatech.edu
*** at Tue May 10 17:00:08 2022

   => Loading Basis Set <=

    Name: CC-PVDZ
    Role: ORBITAL
    Keyword: BASIS
    atoms 1, 3 entry H          line    22 file /usr/local/pace-apps/manual/packages/psi4/1.3.2/intel-19.0.5/share/psi4/basis/cc-pvdz.gbs 
    atoms 2    entry O          line   198 file /usr/local/pace-apps/manual/packages/psi4/1.3.2/intel-19.0.5/share/psi4/basis/cc-pvdz.gbs 


         ---------------------------------------------------------
                                   SCF
               by Justin Turney, Rob Parrish, Andy Simmonett
                          and Daniel G. A. Smith
                              RHF Reference
                        1 Threads,   9536 MiB Core
         ---------------------------------------------------------

  ==> Geometry <==

    Molecular point group: c2v
    Full point group: C2v

    Geometry (in Angstrom), charge = 0, multiplicity = 1:

       Center              X                  Y                   Z               Mass       
    ------------   -----------------  -----------------  -----------------  -----------------
         H            0.000000000000     0.790689573744    -0.543701060715     1.007825032230
         O            0.000000000000     0.000000000000     0.068516219320    15.994914619570
         H            0.000000000000    -0.790689573744    -0.543701060715     1.007825032230

  Running in c2v symmetry.

  Rotational constants: A =     25.12555  B =     13.37733  C =      8.72955 [cm^-1]
  Rotational constants: A = 753245.07149  B = 401042.16706  C = 261705.25473 [MHz]
  Nuclear repulsion =    8.801465564567406

  Charge       = 0
  Multiplicity = 1
  Electrons    = 10
  Nalpha       = 5
  Nbeta        = 5

  ==> Algorithm <==

  SCF Algorithm Type is DISK_DF.
  DIIS enabled.
  MOM disabled.
  Fractional occupation disabled.
  Guess Type is SAD.
  Energy threshold   = 1.00e-10
  Density threshold  = 1.00e-10
  Integral threshold = 0.00e+00

  ==> Primary Basis <==

  Basis Set: CC-PVDZ
    Blend: CC-PVDZ
    Number of shells: 12
    Number of basis function: 24
    Number of Cartesian functions: 25
    Spherical Harmonics?: true
    Max angular momentum: 2

   => Loading Basis Set <=

    Name: (CC-PVDZ AUX)
    Role: JKFIT
    Keyword: DF_BASIS_SCF
    atoms 1, 3 entry H          line    51 file /usr/local/pace-apps/manual/packages/psi4/1.3.2/intel-19.0.5/share/psi4/basis/cc-pvdz-jkfit.gbs 
    atoms 2    entry O          line   221 file /usr/local/pace-apps/manual/packages/psi4/1.3.2/intel-19.0.5/share/psi4/basis/cc-pvdz-jkfit.gbs 

  ==> Pre-Iterations <==

   -------------------------------------------------------
    Irrep   Nso     Nmo     Nalpha   Nbeta   Ndocc  Nsocc
   -------------------------------------------------------
     A1        11      11       0       0       0       0
     A2         2       2       0       0       0       0
     B1         4       4       0       0       0       0
     B2         7       7       0       0       0       0
   -------------------------------------------------------
    Total      24      24       5       5       5       0
   -------------------------------------------------------

  ==> Integral Setup <==

  ==> DiskDFJK: Density-Fitted J/K Matrices <==

    J tasked:                  Yes
    K tasked:                  Yes
    wK tasked:                  No
    OpenMP threads:              1
    Integrals threads:           1
    Memory [MiB]:             7152
    Algorithm:                Core
    Integral Cache:           SAVE
    Schwarz Cutoff:          1E-12
    Fitting Condition:       1E-10

   => Auxiliary Basis Set <=

  Basis Set: (CC-PVDZ AUX)
    Blend: CC-PVDZ-JKFIT
    Number of shells: 42
    Number of basis function: 116
    Number of Cartesian functions: 131
    Spherical Harmonics?: true
    Max angular momentum: 3

  Minimum eigenvalue in the overlap matrix is 3.7382439197E-02.
  Using Symmetric Orthogonalization.

  SCF Guess: Superposition of Atomic Densities via on-the-fly atomic UHF.

  ==> Iterations <==

                           Total Energy        Delta E     RMS |[F,P]|

   @DF-RHF iter SAD:   -75.45137243475044   -7.54514e+01   0.00000e+00 
   @DF-RHF iter   1:   -75.94580099112491   -4.94429e-01   3.03025e-02 DIIS
   @DF-RHF iter   2:   -75.99964867099602   -5.38477e-02   1.81940e-02 DIIS
   @DF-RHF iter   3:   -76.02091630759735   -2.12676e-02   1.67012e-03 DIIS
   @DF-RHF iter   4:   -76.02136941091467   -4.53103e-04   4.20110e-04 DIIS
   @DF-RHF iter   5:   -76.02139623764042   -2.68267e-05   7.52794e-05 DIIS
   @DF-RHF iter   6:   -76.02139743202601   -1.19439e-06   1.16774e-05 DIIS
   @DF-RHF iter   7:   -76.02139746368459   -3.16586e-08   1.86515e-06 DIIS
   @DF-RHF iter   8:   -76.02139746459228   -9.07690e-10   4.57981e-07 DIIS
   @DF-RHF iter   9:   -76.02139746465434   -6.20588e-11   7.24939e-08 DIIS
   @DF-RHF iter  10:   -76.02139746465561   -1.26477e-12   6.28034e-09 DIIS
   @DF-RHF iter  11:   -76.02139746465559    1.42109e-14   1.03626e-09 DIIS
   @DF-RHF iter  12:   -76.02139746465571   -1.13687e-13   5.45250e-11 DIIS
  Energy and wave function converged.


  ==> Post-Iterations <==

    Orbital Energies [Eh]
    ---------------------

    Doubly Occupied:                                                      

       1A1   -20.557851     2A1    -1.316186     1B2    -0.677076  
       3A1    -0.558723     1B1    -0.490375  

    Virtual:                                                              

       4A1     0.178016     2B2     0.249486     3B2     0.760311  
       5A1     0.816144     6A1     1.166347     2B1     1.198686  
       4B2     1.256576     7A1     1.452880     1A2     1.466534  
       3B1     1.668515     8A1     1.877409     5B2     1.890443  
       6B2     2.355075     9A1     2.388631     4B1     3.249433  
       2A2     3.298364    10A1     3.454607    11A1     3.821967  
       7B2     4.099335  

    Final Occupation by Irrep:
             A1    A2    B1    B2 
    DOCC [     3,    0,    1,    1 ]

  @DF-RHF Final Energy:   -76.02139746465571

   => Energetics <=

    Nuclear Repulsion Energy =              8.8014655645674065
    One-Electron Energy =                -122.4453031358689827
    Two-Electron Energy =                  37.6224401066458682
    Total Energy =                        -76.0213974646557062

Computation Completed


Properties will be evaluated at   0.000000,   0.000000,   0.000000 [a0]

Properties computed using the SCF density matrix

  Nuclear Dipole Moment: [e a0]
     X:     0.0000      Y:     0.0000      Z:    -1.0191

  Electronic Dipole Moment: [e a0]
     X:     0.0000      Y:     0.0000      Z:     0.1945

  Dipole Moment: [e a0]
     X:     0.0000      Y:     0.0000      Z:    -0.8246     Total:     0.8246

  Dipole Moment: [D]
     X:     0.0000      Y:     0.0000      Z:    -2.0958     Total:     2.0958


*** tstop() called on atl1-1-02-012-5-l.pace.gatech.edu at Tue May 10 17:00:09 2022
Module time:
	user time   =       0.37 seconds =       0.01 minutes
	system time =       0.02 seconds =       0.00 minutes
	total time  =          1 seconds =       0.02 minutes
Total time:
	user time   =       0.37 seconds =       0.01 minutes
	system time =       0.02 seconds =       0.00 minutes
	total time  =          1 seconds =       0.02 minutes

  A requested method does not make use of molecular symmetry: further calculations in C1 point group.

  Constructing Basis Sets for DFOCC...

   => Loading Basis Set <=

    Name: (CC-PVDZ AUX)
    Role: JKFIT
    Keyword: DF_BASIS_SCF
    atoms 1, 3 entry H          line    51 file /usr/local/pace-apps/manual/packages/psi4/1.3.2/intel-19.0.5/share/psi4/basis/cc-pvdz-jkfit.gbs 
    atoms 2    entry O          line   221 file /usr/local/pace-apps/manual/packages/psi4/1.3.2/intel-19.0.5/share/psi4/basis/cc-pvdz-jkfit.gbs 

   => Loading Basis Set <=

    Name: (CC-PVDZ AUX)
    Role: RIFIT
    Keyword: DF_BASIS_CC
    atoms 1, 3 entry H          line    19 file /usr/local/pace-apps/manual/packages/psi4/1.3.2/intel-19.0.5/share/psi4/basis/cc-pvdz-ri.gbs 
    atoms 2    entry O          line   235 file /usr/local/pace-apps/manual/packages/psi4/1.3.2/intel-19.0.5/share/psi4/basis/cc-pvdz-ri.gbs 


*** tstart() called on atl1-1-02-012-5-l.pace.gatech.edu
*** at Tue May 10 17:00:09 2022



  Module DFOCC Options:
  ----------------------------------------------------------------------------
  ACTIVE                        => (empty)         !
  BASIS_RELATIVISTIC            => (empty)         !
  BENCH                         => (empty)         !
  CC_DIIS_MAX_VECS              => (empty)         !
  CC_DIIS_MIN_VECS              => (empty)         !
  CC_LAMBDA                     => TRUE            !
  CC_MAXITER                    => (empty)         !
  CC_TYPE                       => DF              !
  CHOLESKY                      => (empty)         !
  CHOLESKY_TOLERANCE            => (empty)         !
  CI_TYPE                       => (empty)         !
  COMPUT_S2                     => (empty)         !
  CUBEPROP_BASIS_FUNCTIONS      => (empty)         !
  CUBEPROP_FILEPATH             => (empty)         !
  CUBEPROP_ISOCONTOUR_THRESHOLD => (empty)         !
  CUBEPROP_ORBITALS             => (empty)         !
  CUBEPROP_TASKS                => (empty)         !
  CUBIC_BASIS_TOLERANCE         => (empty)         !
  CUBIC_BLOCK_MAX_POINTS        => (empty)         !
  CUBIC_GRID_OVERAGE            => (empty)         !
  CUBIC_GRID_SPACING            => (empty)         !
  CUTOFF                        => (empty)         !
  DEBUG                         => (empty)         !
  DERTYPE                       => FIRST           !
  DF_BASIS_CC                   => (empty)         !
  DIE_IF_NOT_CONVERGED          => (empty)         !
  DKH_ORDER                     => (empty)         !
  DOCC                          => (empty)         !
  DO_DIIS                       => (empty)         !
  DO_LEVEL_SHIFT                => (empty)         !
  DO_SCS                        => FALSE           !
  DO_SOS                        => FALSE           !
  E3_SCALE                      => (empty)         !
  EKT_IP                        => (empty)         !
  EXTERNAL_POTENTIAL_SYMMETRY   => (empty)         !
  E_CONVERGENCE                 => 1e-08           !
  FREEZE_CORE                   => TRUE            !
  FROZEN_DOCC                   => (empty)         !
  FROZEN_UOCC                   => (empty)         !
  HESS_TYPE                     => (empty)         !
  INTEGRAL_CUTOFF               => (empty)         !
  INTEGRAL_PACKAGE              => (empty)         !
  LEVEL_SHIFT                   => (empty)         !
  LINEQ_SOLVER                  => (empty)         !
  LITERAL_CFOUR                 => (empty)         !
  MAT_NUM_COLUMN_PRINT          => (empty)         !
  MAX_MOGRAD_CONVERGENCE        => (empty)         !
  MOLDEN_WITH_VIRTUAL           => (empty)         !
  MOLDEN_WRITE                  => (empty)         !
  MO_DIIS_NUM_VECS              => (empty)         !
  MO_MAXITER                    => (empty)         !
  MO_STEP_MAX                   => (empty)         !
  MP2_AMP_TYPE                  => (empty)         !
  MP2_OS_SCALE                  => (empty)         !
  MP2_SOS_SCALE                 => (empty)         !
  MP2_SOS_SCALE2                => (empty)         !
  MP2_SS_SCALE                  => (empty)         !
  MP2_TYPE                      => DF              !
  MP_TYPE                       => (empty)         !
  NAT_ORBS                      => (empty)         !
  NUM_FROZEN_DOCC               => (empty)         !
  NUM_FROZEN_UOCC               => (empty)         !
  NUM_GPUS                      => (empty)         !
  OCC_ORBS_PRINT                => (empty)         !
  OEPROP                        => (empty)         !
  OO_SCALE                      => (empty)         !
  OPT_METHOD                    => (empty)         !
  ORB_OPT                       => FALSE           !
  ORB_RESP_SOLVER               => (empty)         !
  ORTH_TYPE                     => (empty)         !
  PCG_BETA_TYPE                 => (empty)         !
  PCG_CONVERGENCE               => (empty)         !
  PCG_MAXITER                   => (empty)         !
  PCM                           => (empty)         !
  PPL_TYPE                      => (empty)         !
  PRINT                         => (empty)         !
  PRINT_NOONS                   => (empty)         !
  PROPERTIES                    => (empty)         !
  PROPERTIES_ORIGIN             => (empty)         !
  PUREAM                        => (empty)         !
  QCHF                          => (empty)         !
  QC_MODULE                     => (empty)         !
  RAS1                          => (empty)         !
  RAS2                          => (empty)         !
  RAS3                          => (empty)         !
  RAS4                          => (empty)         !
  READ_SCF_3INDEX               => (empty)         !
  REGULARIZATION                => (empty)         !
  REG_PARAM                     => (empty)         !
  RELATIVISTIC                  => (empty)         !
  RESTRICTED_DOCC               => (empty)         !
  RESTRICTED_UOCC               => (empty)         !
  RMS_MOGRAD_CONVERGENCE        => (empty)         !
  R_CONVERGENCE                 => (empty)         !
  SCF_TYPE                      => DISK_DF         !
  SCS_TYPE                      => (empty)         !
  SOCC                          => (empty)         !
  SOS_TYPE                      => (empty)         !
  TRIPLES_IABC_TYPE             => (empty)         !
  WFN                           => (empty)         !
  WFN_TYPE                      => DF-CCSD(T)      !
  WRITER_FILE_LABEL             => (empty)         !


 ============================================================================== 
 ============================================================================== 
 ============================================================================== 

                       DF-CCSD   
              Program Written by Ugur Bozkaya
              Latest Revision September 9, 2017

 ============================================================================== 
 ============================================================================== 
 ============================================================================== 

	MO spaces... 

	 FC   OCC   VIR   FV 
	----------------------
	  1    4    19    0

	Number of basis functions in the DF-CC basis:  84
	Reading DF integrals from disk ...
	Number of basis functions in the DF-HF basis: 116

	Available memory                      :   9536.74 MB 
	Memory requirement for 3-index ints   :      0.29 MB 
	Memory requirement for DF-CC int trans:      0.89 MB 
	Memory requirement for CC contractions:      0.18 MB 
	Total memory requirement for DF+CC int:      0.47 MB 
	Memory requirement for Wabef term (T2):      0.99 MB 
	Memory requirement for Wefab term (L2):      1.00 MB 
	Memory for high mem Wabef algorithm   :      1.27 MB 
	I will use the HIGH_MEM Wabef algorithm! 
	Memory requirement for (T) correction :      0.41 MB 

	Computing DF-MP2 energy ... 
	======================================================================= 
	Nuclear Repulsion Energy (a.u.)    :     8.80146556456748
	DF-HF Energy (a.u.)                :   -76.02139746465571
	REF Energy (a.u.)                  :   -76.02139746465571
	DF-MP2 Correlation Energy (a.u.)   :    -0.20466014444255
	DF-MP2 Total Energy (a.u.)         :   -76.22605760909826
	======================================================================= 

 ============================================================================== 
 ================ Performing DF-CCSD iterations... ============================ 
 ============================================================================== 

  Iter       E_corr                  DE                 T2 RMS        T1 RMS     
  ----   ----------------      ----------------       ----------    ----------   
   1      -0.2094879222         -0.0048277778         3.29e-04      1.60e-03 
   2      -0.2138908250         -0.0044029028         1.34e-04      3.03e-04 
   3      -0.2143912956         -0.0005004706         3.22e-05      1.76e-04 
   4      -0.2144051533         -0.0000138578         8.17e-06      3.61e-05 
   5      -0.2144187165         -0.0000135632         1.81e-06      2.07e-05 
   6      -0.2144156570          0.0000030595         6.02e-07      7.09e-06 
   7      -0.2144158938         -0.0000002368         1.34e-07      1.84e-06 
   8      -0.2144151476          0.0000007462         5.23e-08      3.10e-07 
   9      -0.2144151346          0.0000000130         1.14e-08      5.03e-08 
  10      -0.2144151051          0.0000000295         2.91e-09      6.84e-09 
  11      -0.2144151076         -0.0000000025         6.03e-10      2.23e-09 

 ============================================================================== 
 ===================== DF-CCSD ITERATIONS ARE CONVERGED ======================= 
 ============================================================================== 

	T1 diagnostic reference value:     0.02000000000000
	T1 diagnostic                :     0.00662652780602

	======================================================================= 
	================ CCSD FINAL RESULTS =================================== 
	======================================================================= 
	Nuclear Repulsion Energy (a.u.)    :     8.80146556456748
	SCF Energy (a.u.)                  :   -76.02139746465571
	REF Energy (a.u.)                  :   -76.02139746465571
	DF-CCSD Correlation Energy (a.u.)  :    -0.21441510758836
	DF-CCSD Total Energy (a.u.)        :   -76.23581257224407
	======================================================================= 


*** tstop() called on atl1-1-02-012-5-l.pace.gatech.edu at Tue May 10 17:00:10 2022
Module time:
	user time   =       0.13 seconds =       0.00 minutes
	system time =       0.06 seconds =       0.00 minutes
	total time  =          1 seconds =       0.02 minutes
Total time:
	user time   =       0.62 seconds =       0.01 minutes
	system time =       0.08 seconds =       0.00 minutes
	total time  =          2 seconds =       0.03 minutes

*** tstart() called on atl1-1-02-012-5-l.pace.gatech.edu
*** at Tue May 10 17:00:10 2022


 ============================================================================== 
 ============================================================================== 
 ============================================================================== 

                       DF-CCSD(T)   
              Program Written by Ugur Bozkaya
              Latest Revision April 16, 2017

 ============================================================================== 
 ============================================================================== 
 ============================================================================== 

	Computing (T) correction...
	nthreads: 1 
	Number of ijk combinations: 64 
               10.9         0 s
               20.3         0 s
               31.2         0 s
               40.6         1 s
               50.0         1 s
               60.9         1 s
               70.3         1 s
               81.2         1 s
               90.6         1 s
              100.0         1 s
	(T) Correction (a.u.)              :    -0.00324758812022
	DF-CCSD(T) Total Energy (a.u.)     :   -76.23906016036429

*** tstop() called on atl1-1-02-012-5-l.pace.gatech.edu at Tue May 10 17:00:11 2022
Module time:
	user time   =       0.09 seconds =       0.00 minutes
	system time =       0.01 seconds =       0.00 minutes
	total time  =          1 seconds =       0.02 minutes
Total time:
	user time   =       0.71 seconds =       0.01 minutes
	system time =       0.09 seconds =       0.00 minutes
	total time  =          3 seconds =       0.05 minutes

*** tstart() called on atl1-1-02-012-5-l.pace.gatech.edu
*** at Tue May 10 17:00:11 2022


 ============================================================================== 
 ================ Performing DF-CCSDL iterations... =========================== 
 ============================================================================== 

  Iter       E_corr                  DE                 L2 RMS        L1 RMS     
  ----   ----------------      ----------------       ----------    ----------   
   1      -0.2178597241         -0.0034446165         1.17e-04      5.80e-04 
   2      -0.2173945685          0.0004651556         1.69e-05      1.72e-04 
   3      -0.2173947097         -0.0000001412         6.39e-06      3.64e-05 
   4      -0.2174098829         -0.0000151733         1.34e-06      1.56e-05 
   5      -0.2174110291         -0.0000011461         4.04e-07      4.67e-06 
   6      -0.2174111026         -0.0000000735         1.09e-07      1.84e-06 
   7      -0.2174110331          0.0000000694         3.01e-08      3.11e-07 
   8      -0.2174110049          0.0000000283         6.48e-09      6.96e-08 
   9      -0.2174110120         -0.0000000071         1.54e-09      9.78e-09 

 ============================================================================== 
 ===================== DF-CCSDL ITERATIONS ARE CONVERGED ====================== 
 ============================================================================== 

	Computing 3-index intermediates...

*** tstop() called on atl1-1-02-012-5-l.pace.gatech.edu at Tue May 10 17:00:14 2022
Module time:
	user time   =       0.10 seconds =       0.00 minutes
	system time =       0.16 seconds =       0.00 minutes
	total time  =          3 seconds =       0.05 minutes
Total time:
	user time   =       0.81 seconds =       0.01 minutes
	system time =       0.25 seconds =       0.00 minutes
	total time  =          6 seconds =       0.10 minutes

*** tstart() called on atl1-1-02-012-5-l.pace.gatech.edu
*** at Tue May 10 17:00:14 2022


 ============================================================================== 
 ============================================================================== 
 ============================================================================== 

                         DFPDM   
              Particle Density Matrix Code   
               for Density-Fitted Methods       
                   by Ugur Bozkaya
              Latest Revision December 19, 2016

 ============================================================================== 
 ============================================================================== 
 ============================================================================== 

	Computing unrelaxed response density matrices...

	Forming independent-pairs...
	Number of independent-pairs:  95
	Computing the generalized Fock matrix (GFM)...
	Computing the orbital gradient...
	Forming strictly canonical effective orbital gradient...
	Solving orbital Z-vector equations...

	            PCG Solver 
	   ------------------------------ 
	Iter     RMS Z Vector        RMS Residual  
	----    ---------------    ---------------
	  1         3.33e-04         1.55e-04
	  2         6.37e-05         7.63e-05
	  3         3.22e-05         1.44e-05
	  4         4.82e-06         3.39e-06
	  5         7.44e-07         4.30e-07

	Computing the relaxed PDMs and GFM...

*** tstop() called on atl1-1-02-012-5-l.pace.gatech.edu at Tue May 10 17:00:14 2022
Module time:
	user time   =       0.02 seconds =       0.00 minutes
	system time =       0.03 seconds =       0.00 minutes
	total time  =          0 seconds =       0.00 minutes
Total time:
	user time   =       0.83 seconds =       0.01 minutes
	system time =       0.28 seconds =       0.00 minutes
	total time  =          6 seconds =       0.10 minutes

*** tstart() called on atl1-1-02-012-5-l.pace.gatech.edu
*** at Tue May 10 17:00:14 2022


 ============================================================================== 
 ============================================================================== 
 ============================================================================== 

                         DFGRAD   
            A General Analytic Gradients Code   
               for Density-Fitted Methods       
                   by Ugur Bozkaya
              Latest Revision December 19, 2016

 ============================================================================== 
 ============================================================================== 
 ============================================================================== 

	Analytic gradients computation is starting...
	Forming Gamma^tilde...
	Backtransforming OPDM, TPDM, and GFM to the AO basis...
	Computing analytic gradients...

  -Nuclear Gradient:
     Atom            X                  Y                   Z
    ------   -----------------  -----------------  -----------------
       1        0.000000000000    -1.883302417404     1.371506392204
       2        0.000000000000    -0.000000000000    -2.743012784409
       3        0.000000000000     1.883302417404     1.371506392204


  -Core Hamiltonian Gradient:
     Atom            X                  Y                   Z
    ------   -----------------  -----------------  -----------------
       1       -0.000000000000     4.702508461115    -3.510729630912
       2       -0.000000000000     0.000000000001     7.021459261823
       3        0.000000000000    -4.702508461116    -3.510729630912


  -Overlap Gradient:
     Atom            X                  Y                   Z
    ------   -----------------  -----------------  -----------------
       1        0.000000000000    -0.271383445752     0.221905563810
       2        0.000000000000     0.000001356675    -0.443809122952
       3       -0.000000000000     0.271382089077     0.221903559142


  -One-Electron Gradient:
     Atom            X                  Y                   Z
    ------   -----------------  -----------------  -----------------
       1       -0.000000000000     4.702508461115    -3.510729630912
       2       -0.000000000000     0.000000000001     7.021459261823
       3        0.000000000000    -4.702508461116    -3.510729630912


  -Two-Electron Gradient:
     Atom            X                  Y                   Z
    ------   -----------------  -----------------  -----------------
       1        0.000000000000    -2.519271848545     1.902881430511
       2        0.000000000000    -0.000000000001    -3.805762861022
       3       -0.000000000000     2.519271848546     1.902881430511


  -Total Gradient:
     Atom            X                  Y                   Z
    ------   -----------------  -----------------  -----------------
       1        0.000000000000     0.028550749414    -0.014436244386
       2       -0.000000000000     0.000001356675     0.028874493440
       3        0.000000000000    -0.028552106088    -0.014438249054


*** tstop() called on atl1-1-02-012-5-l.pace.gatech.edu at Tue May 10 17:00:14 2022
Module time:
	user time   =       0.10 seconds =       0.00 minutes
	system time =       0.01 seconds =       0.00 minutes
	total time  =          0 seconds =       0.00 minutes
Total time:
	user time   =       0.93 seconds =       0.02 minutes
	system time =       0.29 seconds =       0.00 minutes
	total time  =          6 seconds =       0.10 minutes

			-----------------------------------------
			 OPTKING 2.0: for geometry optimizations 
			  - R.A. King,  Bethel University        
			-----------------------------------------

	Internal coordinates to be generated automatically.
	Detected frag 1 with atoms:  1 2 3
	---Fragment 1 Bond Connectivity---
	 1 : 2
	 2 : 1 3
	 3 : 2

	---Fragment 1 Geometry and Gradient---
	 H           0.0000000000        1.4941867446       -1.0274460989
	 O           0.0000000000        0.0000000000        0.1294768897
	 H           0.0000000000       -1.4941867446       -1.0274460989
	             0.0000000000        0.0285507494       -0.0144362444
	            -0.0000000000        0.0000013567        0.0288744934
	             0.0000000000       -0.0285521061       -0.0144382491

	Previous optimization step data not found.  Starting new optimization.

	---Fragment 1 Intrafragment Coordinates---
	 - Coordinate -           - BOHR/RAD -       - ANG/DEG -
	 R(1,2)           =         1.889726	       1.000000
	 R(2,3)           =         1.889726	       1.000000
	 B(1,2,3)         =         1.823869	     104.500000

	Current energy   :       -76.2390601604

	Generating empirical Hessian (Schlegel '84) for each fragment.
	Taking RFO optimization step.
	Going to follow RFO solution 1.
	Using RFO vector 1.
	Norm of target step-size    0.11547
	Projected energy change by RFO approximation:        -0.0041460064

	Back-transformation to cartesian coordinates...
	Successfully converged to displaced geometry.

	--- Internal Coordinate Step in ANG or DEG, aJ/ANG or AJ/DEG ---
	 ---------------------------------------------------------------------------
	   Coordinate                Previous        Force       Change         New 
	   ----------                --------       ------       ------       ------
	    1 R(1,2)          =      1.000000    -0.258803    -0.034504     0.965496
	    2 R(2,3)          =      1.000000    -0.258820    -0.034506     0.965494
	    3 B(1,2,3)        =    104.500000    -0.000872    -3.981983   100.518017
	 ---------------------------------------------------------------------------
	Successfully symmetrized geometry.

  ==> Convergence Check <==

  Measures of convergence in internal coordinates in au.
  Criteria marked as inactive (o), active & met (*), and active & unmet ( ).
  --------------------------------------------------------------------------------------------- ~
   Step     Total Energy     Delta E     MAX Force     RMS Force      MAX Disp      RMS Disp    ~
  --------------------------------------------------------------------------------------------- ~
    Convergence Criteria    1.00e-06 *    3.00e-04 *             o    1.20e-03 *             o  ~
  --------------------------------------------------------------------------------------------- ~
      1     -76.23906016   -7.62e+01      3.14e-02      2.65e-02 o    6.95e-02      6.67e-02 o  ~
  ---------------------------------------------------------------------------------------------

	Writing optimization data to binary file.
	Structure for next step:
	Cartesian Geometry (in Angstrom)
	    H     0.0000000000   0.7424101563  -0.5453814881
	    O     0.0000000000   0.0000000000   0.0718770780
	    H     0.0000000000  -0.7424101563  -0.5453814881
			--------------------------
			 OPTKING Finished Execution 
			--------------------------

    Structure for next step:
    Molecular point group: c2v
    Full point group: C2v

    Geometry (in Angstrom), charge = 0, multiplicity = 1:

    H       
    O             1          OH
    H             2          OH      1         HOH

    HOH       =  100.5180169627
    OH        =    0.9654952019

gradient() will perform analytic gradient computation.
    Method 'CCSD(T)' requires SCF_TYPE = DISK_DF, setting.

*** tstart() called on atl1-1-02-012-5-l.pace.gatech.edu
*** at Tue May 10 17:00:14 2022

   => Loading Basis Set <=

    Name: CC-PVDZ
    Role: ORBITAL
    Keyword: BASIS
    atoms 1, 3 entry H          line    22 file /usr/local/pace-apps/manual/packages/psi4/1.3.2/intel-19.0.5/share/psi4/basis/cc-pvdz.gbs 
    atoms 2    entry O          line   198 file /usr/local/pace-apps/manual/packages/psi4/1.3.2/intel-19.0.5/share/psi4/basis/cc-pvdz.gbs 


         ---------------------------------------------------------
                                   SCF
               by Justin Turney, Rob Parrish, Andy Simmonett
                          and Daniel G. A. Smith
                              RHF Reference
                        1 Threads,   9536 MiB Core
         ---------------------------------------------------------

  ==> Geometry <==

    Molecular point group: c2v
    Full point group: C2v

    Geometry (in Angstrom), charge = 0, multiplicity = 1:

       Center              X                  Y                   Z               Mass       
    ------------   -----------------  -----------------  -----------------  -----------------
         H            0.000000000000     0.742410159171    -0.548178154044     1.007825032230
         O            0.000000000000     0.000000000000     0.069080414483    15.994914619570
         H            0.000000000000    -0.742410159171    -0.548178154044     1.007825032230

  Running in c2v symmetry.

  Rotational constants: A =     24.71682  B =     15.17377  C =      9.40190 [cm^-1]
  Rotational constants: A = 740991.47438  B = 454898.23341  C = 281861.87277 [MHz]
  Nuclear repulsion =    9.125813937099814

  Charge       = 0
  Multiplicity = 1
  Electrons    = 10
  Nalpha       = 5
  Nbeta        = 5

  ==> Algorithm <==

  SCF Algorithm Type is DISK_DF.
  DIIS enabled.
  MOM disabled.
  Fractional occupation disabled.
  Guess Type is READ.
  Energy threshold   = 1.00e-10
  Density threshold  = 1.00e-10
  Integral threshold = 0.00e+00

  ==> Primary Basis <==

  Basis Set: CC-PVDZ
    Blend: CC-PVDZ
    Number of shells: 12
    Number of basis function: 24
    Number of Cartesian functions: 25
    Spherical Harmonics?: true
    Max angular momentum: 2

   => Loading Basis Set <=

    Name: (CC-PVDZ AUX)
    Role: JKFIT
    Keyword: DF_BASIS_SCF
    atoms 1, 3 entry H          line    51 file /usr/local/pace-apps/manual/packages/psi4/1.3.2/intel-19.0.5/share/psi4/basis/cc-pvdz-jkfit.gbs 
    atoms 2    entry O          line   221 file /usr/local/pace-apps/manual/packages/psi4/1.3.2/intel-19.0.5/share/psi4/basis/cc-pvdz-jkfit.gbs 

   => Loading Basis Set <=

    Name: CC-PVDZ
    Role: ORBITAL
    Keyword: BASIS
    atoms 1, 3 entry H          line    22 file /usr/local/pace-apps/manual/packages/psi4/1.3.2/intel-19.0.5/share/psi4/basis/cc-pvdz.gbs 
    atoms 2    entry O          line   198 file /usr/local/pace-apps/manual/packages/psi4/1.3.2/intel-19.0.5/share/psi4/basis/cc-pvdz.gbs 

  Reading orbitals from file 180, no projection.

  ==> Pre-Iterations <==

   -------------------------------------------------------
    Irrep   Nso     Nmo     Nalpha   Nbeta   Ndocc  Nsocc
   -------------------------------------------------------
     A1        11      11       0       0       0       0
     A2         2       2       0       0       0       0
     B1         4       4       0       0       0       0
     B2         7       7       0       0       0       0
   -------------------------------------------------------
    Total      24      24       5       5       5       0
   -------------------------------------------------------

  ==> Integral Setup <==

  ==> DiskDFJK: Density-Fitted J/K Matrices <==

    J tasked:                  Yes
    K tasked:                  Yes
    wK tasked:                  No
    OpenMP threads:              1
    Integrals threads:           1
    Memory [MiB]:             7152
    Algorithm:                Core
    Integral Cache:           SAVE
    Schwarz Cutoff:          1E-12
    Fitting Condition:       1E-10

   => Auxiliary Basis Set <=

  Basis Set: (CC-PVDZ AUX)
    Blend: CC-PVDZ-JKFIT
    Number of shells: 42
    Number of basis function: 116
    Number of Cartesian functions: 131
    Spherical Harmonics?: true
    Max angular momentum: 3

  Minimum eigenvalue in the overlap matrix is 3.4239657013E-02.
  Using Symmetric Orthogonalization.

  SCF Guess: Orbitals guess was supplied from a previous computation.

  ==> Iterations <==

                           Total Energy        Delta E     RMS |[F,P]|

   @DF-RHF iter   0:   -76.07335070806823   -7.60734e+01   8.48080e-03 
   @DF-RHF iter   1:   -76.02575809810600    4.75926e-02   1.43605e-03 DIIS
   @DF-RHF iter   2:   -76.02590391073136   -1.45813e-04   7.12007e-04 DIIS
   @DF-RHF iter   3:   -76.02593575764926   -3.18469e-05   9.83055e-05 DIIS
   @DF-RHF iter   4:   -76.02593714528683   -1.38764e-06   2.65110e-05 DIIS
   @DF-RHF iter   5:   -76.02593724617105   -1.00884e-07   4.36363e-06 DIIS
   @DF-RHF iter   6:   -76.02593725019427   -4.02322e-09   7.38663e-07 DIIS
   @DF-RHF iter   7:   -76.02593725029840   -1.04123e-10   8.88048e-08 DIIS
   @DF-RHF iter   8:   -76.02593725030009   -1.69109e-12   1.95570e-08 DIIS
   @DF-RHF iter   9:   -76.02593725030019   -9.94760e-14   2.36749e-09 DIIS
   @DF-RHF iter  10:   -76.02593725030020   -1.42109e-14   2.95106e-10 DIIS
   @DF-RHF iter  11:   -76.02593725030020    0.00000e+00   4.75584e-11 DIIS
  Energy and wave function converged.


  ==> Post-Iterations <==

    Orbital Energies [Eh]
    ---------------------

    Doubly Occupied:                                                      

       1A1   -20.554040     2A1    -1.335744     1B2    -0.687220  
       3A1    -0.573248     1B1    -0.494007  

    Virtual:                                                              

       4A1     0.183307     2B2     0.255454     3B2     0.770575  
       5A1     0.864035     6A1     1.168213     2B1     1.199268  
       4B2     1.258148     7A1     1.408196     1A2     1.488200  
       3B1     1.651052     8A1     1.861071     5B2     1.950072  
       6B2     2.424923     9A1     2.478023     4B1     3.299065  
       2A2     3.316367    10A1     3.509530    11A1     3.832962  
       7B2     4.159465  

    Final Occupation by Irrep:
             A1    A2    B1    B2 
    DOCC [     3,    0,    1,    1 ]

  @DF-RHF Final Energy:   -76.02593725030020

   => Energetics <=

    Nuclear Repulsion Energy =              9.1258139370998137
    One-Electron Energy =                -123.0149826163700340
    Two-Electron Energy =                  37.8632314289700176
    Total Energy =                        -76.0259372503002169

Computation Completed


Properties will be evaluated at   0.000000,   0.000000,   0.000000 [a0]

Properties computed using the SCF density matrix

  Nuclear Dipole Moment: [e a0]
     X:     0.0000      Y:     0.0000      Z:    -1.0275

  Electronic Dipole Moment: [e a0]
     X:     0.0000      Y:     0.0000      Z:     0.1917

  Dipole Moment: [e a0]
     X:     0.0000      Y:     0.0000      Z:    -0.8357     Total:     0.8357

  Dipole Moment: [D]
     X:     0.0000      Y:     0.0000      Z:    -2.1242     Total:     2.1242


*** tstop() called on atl1-1-02-012-5-l.pace.gatech.edu at Tue May 10 17:00:14 2022
Module time:
	user time   =       0.19 seconds =       0.00 minutes
	system time =       0.00 seconds =       0.00 minutes
	total time  =          0 seconds =       0.00 minutes
Total time:
	user time   =       1.13 seconds =       0.02 minutes
	system time =       0.30 seconds =       0.01 minutes
	total time  =          6 seconds =       0.10 minutes

  A requested method does not make use of molecular symmetry: further calculations in C1 point group.

  Constructing Basis Sets for DFOCC...

   => Loading Basis Set <=

    Name: (CC-PVDZ AUX)
    Role: JKFIT
    Keyword: DF_BASIS_SCF
    atoms 1, 3 entry H          line    51 file /usr/local/pace-apps/manual/packages/psi4/1.3.2/intel-19.0.5/share/psi4/basis/cc-pvdz-jkfit.gbs 
    atoms 2    entry O          line   221 file /usr/local/pace-apps/manual/packages/psi4/1.3.2/intel-19.0.5/share/psi4/basis/cc-pvdz-jkfit.gbs 

   => Loading Basis Set <=

    Name: (CC-PVDZ AUX)
    Role: RIFIT
    Keyword: DF_BASIS_CC
    atoms 1, 3 entry H          line    19 file /usr/local/pace-apps/manual/packages/psi4/1.3.2/intel-19.0.5/share/psi4/basis/cc-pvdz-ri.gbs 
    atoms 2    entry O          line   235 file /usr/local/pace-apps/manual/packages/psi4/1.3.2/intel-19.0.5/share/psi4/basis/cc-pvdz-ri.gbs 


*** tstart() called on atl1-1-02-012-5-l.pace.gatech.edu
*** at Tue May 10 17:00:15 2022



  Module DFOCC Options:
  ----------------------------------------------------------------------------
  ACTIVE                        => (empty)         !
  BASIS_RELATIVISTIC            => (empty)         !
  BENCH                         => (empty)         !
  CC_DIIS_MAX_VECS              => (empty)         !
  CC_DIIS_MIN_VECS              => (empty)         !
  CC_LAMBDA                     => TRUE            !
  CC_MAXITER                    => (empty)         !
  CC_TYPE                       => DF              !
  CHOLESKY                      => (empty)         !
  CHOLESKY_TOLERANCE            => (empty)         !
  CI_TYPE                       => (empty)         !
  COMPUT_S2                     => (empty)         !
  CUBEPROP_BASIS_FUNCTIONS      => (empty)         !
  CUBEPROP_FILEPATH             => (empty)         !
  CUBEPROP_ISOCONTOUR_THRESHOLD => (empty)         !
  CUBEPROP_ORBITALS             => (empty)         !
  CUBEPROP_TASKS                => (empty)         !
  CUBIC_BASIS_TOLERANCE         => (empty)         !
  CUBIC_BLOCK_MAX_POINTS        => (empty)         !
  CUBIC_GRID_OVERAGE            => (empty)         !
  CUBIC_GRID_SPACING            => (empty)         !
  CUTOFF                        => (empty)         !
  DEBUG                         => (empty)         !
  DERTYPE                       => FIRST           !
  DF_BASIS_CC                   => (empty)         !
  DIE_IF_NOT_CONVERGED          => (empty)         !
  DKH_ORDER                     => (empty)         !
  DOCC                          => (empty)         !
  DO_DIIS                       => (empty)         !
  DO_LEVEL_SHIFT                => (empty)         !
  DO_SCS                        => FALSE           !
  DO_SOS                        => FALSE           !
  E3_SCALE                      => (empty)         !
  EKT_IP                        => (empty)         !
  EXTERNAL_POTENTIAL_SYMMETRY   => (empty)         !
  E_CONVERGENCE                 => 1e-08           !
  FREEZE_CORE                   => TRUE            !
  FROZEN_DOCC                   => (empty)         !
  FROZEN_UOCC                   => (empty)         !
  HESS_TYPE                     => (empty)         !
  INTEGRAL_CUTOFF               => (empty)         !
  INTEGRAL_PACKAGE              => (empty)         !
  LEVEL_SHIFT                   => (empty)         !
  LINEQ_SOLVER                  => (empty)         !
  LITERAL_CFOUR                 => (empty)         !
  MAT_NUM_COLUMN_PRINT          => (empty)         !
  MAX_MOGRAD_CONVERGENCE        => (empty)         !
  MOLDEN_WITH_VIRTUAL           => (empty)         !
  MOLDEN_WRITE                  => (empty)         !
  MO_DIIS_NUM_VECS              => (empty)         !
  MO_MAXITER                    => (empty)         !
  MO_STEP_MAX                   => (empty)         !
  MP2_AMP_TYPE                  => (empty)         !
  MP2_OS_SCALE                  => (empty)         !
  MP2_SOS_SCALE                 => (empty)         !
  MP2_SOS_SCALE2                => (empty)         !
  MP2_SS_SCALE                  => (empty)         !
  MP2_TYPE                      => DF              !
  MP_TYPE                       => (empty)         !
  NAT_ORBS                      => (empty)         !
  NUM_FROZEN_DOCC               => (empty)         !
  NUM_FROZEN_UOCC               => (empty)         !
  NUM_GPUS                      => (empty)         !
  OCC_ORBS_PRINT                => (empty)         !
  OEPROP                        => (empty)         !
  OO_SCALE                      => (empty)         !
  OPT_METHOD                    => (empty)         !
  ORB_OPT                       => FALSE           !
  ORB_RESP_SOLVER               => (empty)         !
  ORTH_TYPE                     => (empty)         !
  PCG_BETA_TYPE                 => (empty)         !
  PCG_CONVERGENCE               => (empty)         !
  PCG_MAXITER                   => (empty)         !
  PCM                           => (empty)         !
  PPL_TYPE                      => (empty)         !
  PRINT                         => (empty)         !
  PRINT_NOONS                   => (empty)         !
  PROPERTIES                    => (empty)         !
  PROPERTIES_ORIGIN             => (empty)         !
  PUREAM                        => (empty)         !
  QCHF                          => (empty)         !
  QC_MODULE                     => (empty)         !
  RAS1                          => (empty)         !
  RAS2                          => (empty)         !
  RAS3                          => (empty)         !
  RAS4                          => (empty)         !
  READ_SCF_3INDEX               => (empty)         !
  REGULARIZATION                => (empty)         !
  REG_PARAM                     => (empty)         !
  RELATIVISTIC                  => (empty)         !
  RESTRICTED_DOCC               => (empty)         !
  RESTRICTED_UOCC               => (empty)         !
  RMS_MOGRAD_CONVERGENCE        => (empty)         !
  R_CONVERGENCE                 => (empty)         !
  SCF_TYPE                      => DISK_DF         !
  SCS_TYPE                      => (empty)         !
  SOCC                          => (empty)         !
  SOS_TYPE                      => (empty)         !
  TRIPLES_IABC_TYPE             => (empty)         !
  WFN                           => (empty)         !
  WFN_TYPE                      => DF-CCSD(T)      !
  WRITER_FILE_LABEL             => (empty)         !


 ============================================================================== 
 ============================================================================== 
 ============================================================================== 

                       DF-CCSD   
              Program Written by Ugur Bozkaya
              Latest Revision September 9, 2017

 ============================================================================== 
 ============================================================================== 
 ============================================================================== 

	MO spaces... 

	 FC   OCC   VIR   FV 
	----------------------
	  1    4    19    0

	Number of basis functions in the DF-CC basis:  84
	Reading DF integrals from disk ...
	Number of basis functions in the DF-HF basis: 116

	Available memory                      :   9536.74 MB 
	Memory requirement for 3-index ints   :      0.29 MB 
	Memory requirement for DF-CC int trans:      0.89 MB 
	Memory requirement for CC contractions:      0.18 MB 
	Total memory requirement for DF+CC int:      0.47 MB 
	Memory requirement for Wabef term (T2):      0.99 MB 
	Memory requirement for Wefab term (L2):      1.00 MB 
	Memory for high mem Wabef algorithm   :      1.27 MB 
	I will use the HIGH_MEM Wabef algorithm! 
	Memory requirement for (T) correction :      0.41 MB 

	Computing DF-MP2 energy ... 
	======================================================================= 
	Nuclear Repulsion Energy (a.u.)    :     9.12581393709990
	DF-HF Energy (a.u.)                :   -76.02593725030020
	REF Energy (a.u.)                  :   -76.02593725030020
	DF-MP2 Correlation Energy (a.u.)   :    -0.20262989727476
	DF-MP2 Total Energy (a.u.)         :   -76.22856714757496
	======================================================================= 

 ============================================================================== 
 ================ Performing DF-CCSD iterations... ============================ 
 ============================================================================== 

  Iter       E_corr                  DE                 T2 RMS        T1 RMS     
  ----   ----------------      ----------------       ----------    ----------   
   1      -0.2077629388         -0.0051330415         3.13e-04      1.51e-03 
   2      -0.2118432203         -0.0040802814         1.23e-04      2.69e-04 
   3      -0.2122772734         -0.0004340531         2.84e-05      1.49e-04 
   4      -0.2122881168         -0.0000108434         7.00e-06      2.63e-05 
   5      -0.2122997185         -0.0000116017         1.47e-06      1.46e-05 
   6      -0.2122978991          0.0000018194         4.46e-07      5.08e-06 
   7      -0.2122981180         -0.0000002190         9.83e-08      1.50e-06 
   8      -0.2122975799          0.0000005382         3.88e-08      2.59e-07 
   9      -0.2122975582          0.0000000217         8.37e-09      4.36e-08 
  10      -0.2122975337          0.0000000244         2.22e-09      5.16e-09 
  11      -0.2122975341         -0.0000000004         4.49e-10      1.62e-09 

 ============================================================================== 
 ===================== DF-CCSD ITERATIONS ARE CONVERGED ======================= 
 ============================================================================== 

	T1 diagnostic reference value:     0.02000000000000
	T1 diagnostic                :     0.00607517615902

	======================================================================= 
	================ CCSD FINAL RESULTS =================================== 
	======================================================================= 
	Nuclear Repulsion Energy (a.u.)    :     9.12581393709990
	SCF Energy (a.u.)                  :   -76.02593725030020
	REF Energy (a.u.)                  :   -76.02593725030020
	DF-CCSD Correlation Energy (a.u.)  :    -0.21229753406606
	DF-CCSD Total Energy (a.u.)        :   -76.23823478436626
	======================================================================= 


*** tstop() called on atl1-1-02-012-5-l.pace.gatech.edu at Tue May 10 17:00:16 2022
Module time:
	user time   =       0.15 seconds =       0.00 minutes
	system time =       0.15 seconds =       0.00 minutes
	total time  =          1 seconds =       0.02 minutes
Total time:
	user time   =       1.40 seconds =       0.02 minutes
	system time =       0.45 seconds =       0.01 minutes
	total time  =          8 seconds =       0.13 minutes

*** tstart() called on atl1-1-02-012-5-l.pace.gatech.edu
*** at Tue May 10 17:00:16 2022


 ============================================================================== 
 ============================================================================== 
 ============================================================================== 

                       DF-CCSD(T)   
              Program Written by Ugur Bozkaya
              Latest Revision April 16, 2017

 ============================================================================== 
 ============================================================================== 
 ============================================================================== 

	Computing (T) correction...
	nthreads: 1 
	Number of ijk combinations: 64 
               10.9         0 s
               20.3         0 s
               31.2         0 s
               40.6         0 s
               50.0         0 s
               60.9         0 s
               70.3         0 s
               81.2         0 s
               90.6         0 s
              100.0         0 s
	(T) Correction (a.u.)              :    -0.00311922330150
	DF-CCSD(T) Total Energy (a.u.)     :   -76.24135400766775

*** tstop() called on atl1-1-02-012-5-l.pace.gatech.edu at Tue May 10 17:00:16 2022
Module time:
	user time   =       0.09 seconds =       0.00 minutes
	system time =       0.00 seconds =       0.00 minutes
	total time  =          0 seconds =       0.00 minutes
Total time:
	user time   =       1.49 seconds =       0.02 minutes
	system time =       0.45 seconds =       0.01 minutes
	total time  =          8 seconds =       0.13 minutes

*** tstart() called on atl1-1-02-012-5-l.pace.gatech.edu
*** at Tue May 10 17:00:16 2022


 ============================================================================== 
 ================ Performing DF-CCSDL iterations... =========================== 
 ============================================================================== 

  Iter       E_corr                  DE                 L2 RMS        L1 RMS     
  ----   ----------------      ----------------       ----------    ----------   
   1      -0.2156689014         -0.0033713674         1.10e-04      5.73e-04 
   2      -0.2152416901          0.0004272113         1.56e-05      1.59e-04 
   3      -0.2152358456          0.0000058445         5.45e-06      3.16e-05 
   4      -0.2152471335         -0.0000112879         1.12e-06      1.31e-05 
   5      -0.2152480276         -0.0000008940         3.33e-07      3.77e-06 
   6      -0.2152480401         -0.0000000125         8.72e-08      1.46e-06 
   7      -0.2152480096          0.0000000305         2.47e-08      2.56e-07 
   8      -0.2152479805          0.0000000291         5.11e-09      5.98e-08 
   9      -0.2152479865         -0.0000000059         1.25e-09      8.86e-09 

 ============================================================================== 
 ===================== DF-CCSDL ITERATIONS ARE CONVERGED ====================== 
 ============================================================================== 

	Computing 3-index intermediates...

*** tstop() called on atl1-1-02-012-5-l.pace.gatech.edu at Tue May 10 17:00:19 2022
Module time:
	user time   =       0.10 seconds =       0.00 minutes
	system time =       0.21 seconds =       0.00 minutes
	total time  =          3 seconds =       0.05 minutes
Total time:
	user time   =       1.59 seconds =       0.03 minutes
	system time =       0.66 seconds =       0.01 minutes
	total time  =         11 seconds =       0.18 minutes

*** tstart() called on atl1-1-02-012-5-l.pace.gatech.edu
*** at Tue May 10 17:00:19 2022


 ============================================================================== 
 ============================================================================== 
 ============================================================================== 

                         DFPDM   
              Particle Density Matrix Code   
               for Density-Fitted Methods       
                   by Ugur Bozkaya
              Latest Revision December 19, 2016

 ============================================================================== 
 ============================================================================== 
 ============================================================================== 

	Computing unrelaxed response density matrices...

	Forming independent-pairs...
	Number of independent-pairs:  95
	Computing the generalized Fock matrix (GFM)...
	Computing the orbital gradient...
	Forming strictly canonical effective orbital gradient...
	Solving orbital Z-vector equations...

	            PCG Solver 
	   ------------------------------ 
	Iter     RMS Z Vector        RMS Residual  
	----    ---------------    ---------------
	  1         2.83e-04         1.44e-04
	  2         4.85e-05         6.06e-05
	  3         2.89e-05         1.17e-05
	  4         3.85e-06         2.69e-06
	  5         6.19e-07         3.55e-07

	Computing the relaxed PDMs and GFM...

*** tstop() called on atl1-1-02-012-5-l.pace.gatech.edu at Tue May 10 17:00:19 2022
Module time:
	user time   =       0.03 seconds =       0.00 minutes
	system time =       0.03 seconds =       0.00 minutes
	total time  =          0 seconds =       0.00 minutes
Total time:
	user time   =       1.62 seconds =       0.03 minutes
	system time =       0.69 seconds =       0.01 minutes
	total time  =         11 seconds =       0.18 minutes

*** tstart() called on atl1-1-02-012-5-l.pace.gatech.edu
*** at Tue May 10 17:00:19 2022


 ============================================================================== 
 ============================================================================== 
 ============================================================================== 

                         DFGRAD   
            A General Analytic Gradients Code   
               for Density-Fitted Methods       
                   by Ugur Bozkaya
              Latest Revision December 19, 2016

 ============================================================================== 
 ============================================================================== 
 ============================================================================== 

	Analytic gradients computation is starting...
	Forming Gamma^tilde...
	Backtransforming OPDM, TPDM, and GFM to the AO basis...
	Computing analytic gradients...

  -Nuclear Gradient:
     Atom            X                  Y                   Z
    ------   -----------------  -----------------  -----------------
       1        0.000000000000    -1.974946043538     1.536416704414
       2        0.000000000000    -0.000000000000    -3.072833408828
       3        0.000000000000     1.974946043538     1.536416704414


  -Core Hamiltonian Gradient:
     Atom            X                  Y                   Z
    ------   -----------------  -----------------  -----------------
       1        0.000000000000     4.750801733240    -3.893890247555
       2       -0.000000000000    -0.000000000001     7.787780495109
       3       -0.000000000000    -4.750801733239    -3.893890247554


  -Overlap Gradient:
     Atom            X                  Y                   Z
    ------   -----------------  -----------------  -----------------
       1        0.000000000000    -0.273599487864     0.244144265065
       2       -0.000000000000     0.000001059368    -0.488286711131
       3        0.000000000000     0.273598428496     0.244142446066


  -One-Electron Gradient:
     Atom            X                  Y                   Z
    ------   -----------------  -----------------  -----------------
       1        0.000000000000     4.750801733240    -3.893890247555
       2       -0.000000000000    -0.000000000001     7.787780495109
       3       -0.000000000000    -4.750801733239    -3.893890247554


  -Two-Electron Gradient:
     Atom            X                  Y                   Z
    ------   -----------------  -----------------  -----------------
       1       -0.000000000000    -2.505022465607     2.112520739755
       2        0.000000000000     0.000000000001    -4.225041479510
       3        0.000000000000     2.505022465607     2.112520739755


  -Total Gradient:
     Atom            X                  Y                   Z
    ------   -----------------  -----------------  -----------------
       1        0.000000000000    -0.002766263769    -0.000808538320
       2       -0.000000000000     0.000001059368     0.001618895639
       3        0.000000000000     0.002765204401    -0.000810357319


*** tstop() called on atl1-1-02-012-5-l.pace.gatech.edu at Tue May 10 17:00:19 2022
Module time:
	user time   =       0.09 seconds =       0.00 minutes
	system time =       0.02 seconds =       0.00 minutes
	total time  =          0 seconds =       0.00 minutes
Total time:
	user time   =       1.71 seconds =       0.03 minutes
	system time =       0.71 seconds =       0.01 minutes
	total time  =         11 seconds =       0.18 minutes

			-----------------------------------------
			 OPTKING 2.0: for geometry optimizations 
			  - R.A. King,  Bethel University        
			-----------------------------------------

	Previous internal coordinate definitions found.
	---Fragment 1 Geometry and Gradient---
	 H           0.0000000000        1.4029518736       -1.0359065791
	 O           0.0000000000        0.0000000000        0.1305430640
	 H           0.0000000000       -1.4029518736       -1.0359065791
	             0.0000000000       -0.0027662638       -0.0008085383
	            -0.0000000000        0.0000010594        0.0016188956
	             0.0000000000        0.0027652044       -0.0008103573

	---Fragment 1 Intrafragment Coordinates---
	 - Coordinate -           - BOHR/RAD -       - ANG/DEG -
	 R(1,2)           =         1.824522	       0.965495
	 R(2,3)           =         1.824522	       0.965495
	 B(1,2,3)         =         1.754370	     100.518017

	Current energy   :       -76.2413540077

	Energy change for the previous step:
		Projected    :        -0.0041460064
		Actual       :        -0.0022938473

	Performing BFGS update.
	Previous computed or guess Hessian on step 1.
	Steps to be used in Hessian update: 1
	Taking RFO optimization step.
	Going to follow RFO solution 1.
	Using RFO vector 1.
	Norm of target step-size    0.02373
	Projected energy change by RFO approximation:        -0.0001521698

	Back-transformation to cartesian coordinates...
	Successfully converged to displaced geometry.

	--- Internal Coordinate Step in ANG or DEG, aJ/ANG or AJ/DEG ---
	 ---------------------------------------------------------------------------
	   Coordinate                Previous        Force       Change         New 
	   ----------                --------       ------       ------       ------
	    1 R(1,2)          =      0.965495     0.013265     0.001126     0.966621
	    2 R(2,3)          =      0.965495     0.013251     0.001124     0.966619
	    3 B(1,2,3)        =    100.518017     0.000332     1.348500   101.866517
	 ---------------------------------------------------------------------------
	Successfully symmetrized geometry.

  ==> Convergence Check <==

  Measures of convergence in internal coordinates in au.
  Criteria marked as inactive (o), active & met (*), and active & unmet ( ).
  ---------------------------------------------------------------------------------------------
   Step     Total Energy     Delta E     MAX Force     RMS Force      MAX Disp      RMS Disp   
  ---------------------------------------------------------------------------------------------
    Convergence Criteria    1.00e-06 *    3.00e-04 *             o    1.20e-03 *             o
  ---------------------------------------------------------------------------------------------
      2     -76.24135401   -2.29e-03      4.36e-03      2.84e-03 o    2.35e-02      1.37e-02 o  ~
  ---------------------------------------------------------------------------------------------

	Writing optimization data to binary file.
	Structure for next step:
	Cartesian Geometry (in Angstrom)
	    H     0.0000000000   0.7504958361  -0.5454880974
	    O     0.0000000000   0.0000000000   0.0637003052
	    H     0.0000000000  -0.7504958361  -0.5454880974
			--------------------------
			 OPTKING Finished Execution 
			--------------------------

    Structure for next step:
    Molecular point group: c2v
    Full point group: C2v

    Geometry (in Angstrom), charge = 0, multiplicity = 1:

    H       
    O             1          OH
    H             2          OH      1         HOH

    HOH       =  101.8665172403
    OH        =    0.9666201514

gradient() will perform analytic gradient computation.
    Method 'CCSD(T)' requires SCF_TYPE = DISK_DF, setting.

*** tstart() called on atl1-1-02-012-5-l.pace.gatech.edu
*** at Tue May 10 17:00:19 2022

   => Loading Basis Set <=

    Name: CC-PVDZ
    Role: ORBITAL
    Keyword: BASIS
    atoms 1, 3 entry H          line    22 file /usr/local/pace-apps/manual/packages/psi4/1.3.2/intel-19.0.5/share/psi4/basis/cc-pvdz.gbs 
    atoms 2    entry O          line   198 file /usr/local/pace-apps/manual/packages/psi4/1.3.2/intel-19.0.5/share/psi4/basis/cc-pvdz.gbs 


         ---------------------------------------------------------
                                   SCF
               by Justin Turney, Rob Parrish, Andy Simmonett
                          and Daniel G. A. Smith
                              RHF Reference
                        1 Threads,   9536 MiB Core
         ---------------------------------------------------------

  ==> Geometry <==

    Molecular point group: c2v
    Full point group: C2v

    Geometry (in Angstrom), charge = 0, multiplicity = 1:

       Center              X                  Y                   Z               Mass       
    ------------   -----------------  -----------------  -----------------  -----------------
         H            0.000000000000     0.750495839010    -0.541011161848     1.007825032230
         O            0.000000000000     0.000000000000     0.068177243154    15.994914619570
         H            0.000000000000    -0.750495839010    -0.541011161848     1.007825032230

  Running in c2v symmetry.

  Rotational constants: A =     25.37602  B =     14.84858  C =      9.36735 [cm^-1]
  Rotational constants: A = 760753.93714  B = 445149.08511  C = 280825.99750 [MHz]
  Nuclear repulsion =    9.111768426216535

  Charge       = 0
  Multiplicity = 1
  Electrons    = 10
  Nalpha       = 5
  Nbeta        = 5

  ==> Algorithm <==

  SCF Algorithm Type is DISK_DF.
  DIIS enabled.
  MOM disabled.
  Fractional occupation disabled.
  Guess Type is READ.
  Energy threshold   = 1.00e-10
  Density threshold  = 1.00e-10
  Integral threshold = 0.00e+00

  ==> Primary Basis <==

  Basis Set: CC-PVDZ
    Blend: CC-PVDZ
    Number of shells: 12
    Number of basis function: 24
    Number of Cartesian functions: 25
    Spherical Harmonics?: true
    Max angular momentum: 2

   => Loading Basis Set <=

    Name: (CC-PVDZ AUX)
    Role: JKFIT
    Keyword: DF_BASIS_SCF
    atoms 1, 3 entry H          line    51 file /usr/local/pace-apps/manual/packages/psi4/1.3.2/intel-19.0.5/share/psi4/basis/cc-pvdz-jkfit.gbs 
    atoms 2    entry O          line   221 file /usr/local/pace-apps/manual/packages/psi4/1.3.2/intel-19.0.5/share/psi4/basis/cc-pvdz-jkfit.gbs 

   => Loading Basis Set <=

    Name: CC-PVDZ
    Role: ORBITAL
    Keyword: BASIS
    atoms 1, 3 entry H          line    22 file /usr/local/pace-apps/manual/packages/psi4/1.3.2/intel-19.0.5/share/psi4/basis/cc-pvdz.gbs 
    atoms 2    entry O          line   198 file /usr/local/pace-apps/manual/packages/psi4/1.3.2/intel-19.0.5/share/psi4/basis/cc-pvdz.gbs 

  Reading orbitals from file 180, no projection.

  ==> Pre-Iterations <==

   -------------------------------------------------------
    Irrep   Nso     Nmo     Nalpha   Nbeta   Ndocc  Nsocc
   -------------------------------------------------------
     A1        11      11       0       0       0       0
     A2         2       2       0       0       0       0
     B1         4       4       0       0       0       0
     B2         7       7       0       0       0       0
   -------------------------------------------------------
    Total      24      24       5       5       5       0
   -------------------------------------------------------

  ==> Integral Setup <==

  ==> DiskDFJK: Density-Fitted J/K Matrices <==

    J tasked:                  Yes
    K tasked:                  Yes
    wK tasked:                  No
    OpenMP threads:              1
    Integrals threads:           1
    Memory [MiB]:             7152
    Algorithm:                Core
    Integral Cache:           SAVE
    Schwarz Cutoff:          1E-12
    Fitting Condition:       1E-10

   => Auxiliary Basis Set <=

  Basis Set: (CC-PVDZ AUX)
    Blend: CC-PVDZ-JKFIT
    Number of shells: 42
    Number of basis function: 116
    Number of Cartesian functions: 131
    Spherical Harmonics?: true
    Max angular momentum: 3

  Minimum eigenvalue in the overlap matrix is 3.4483099954E-02.
  Using Symmetric Orthogonalization.

  SCF Guess: Orbitals guess was supplied from a previous computation.

  ==> Iterations <==

                           Total Energy        Delta E     RMS |[F,P]|

   @DF-RHF iter   0:   -76.02500635722288   -7.60250e+01   6.30384e-04 
   @DF-RHF iter   1:   -76.02605766618147   -1.05131e-03   1.32749e-04 DIIS
   @DF-RHF iter   2:   -76.02605955468468   -1.88850e-06   4.40273e-05 DIIS
   @DF-RHF iter   3:   -76.02605980269628   -2.48012e-07   2.17859e-05 DIIS
   @DF-RHF iter   4:   -76.02605986540667   -6.27104e-08   5.04418e-06 DIIS
   @DF-RHF iter   5:   -76.02605987273971   -7.33304e-09   1.04186e-06 DIIS
   @DF-RHF iter   6:   -76.02605987302903   -2.89319e-10   7.90538e-08 DIIS
   @DF-RHF iter   7:   -76.02605987303033   -1.30740e-12   4.03611e-09 DIIS
   @DF-RHF iter   8:   -76.02605987303028    5.68434e-14   4.20182e-10 DIIS
   @DF-RHF iter   9:   -76.02605987303025    2.84217e-14   6.75540e-11 DIIS
  Energy and wave function converged.


  ==> Post-Iterations <==

    Orbital Energies [Eh]
    ---------------------

    Doubly Occupied:                                                      

       1A1   -20.553529     2A1    -1.334091     1B2    -0.689279  
       3A1    -0.570260     1B1    -0.493449  

    Virtual:                                                              

       4A1     0.183436     2B2     0.255132     3B2     0.773996  
       5A1     0.857253     6A1     1.166687     2B1     1.199591  
       4B2     1.256801     7A1     1.421582     1A2     1.483140  
       3B1     1.658712     8A1     1.863985     5B2     1.940756  
       6B2     2.424824     9A1     2.472389     4B1     3.291442  
       2A2     3.320307    10A1     3.506955    11A1     3.838625  
       7B2     4.151432  

    Final Occupation by Irrep:
             A1    A2    B1    B2 
    DOCC [     3,    0,    1,    1 ]

  @DF-RHF Final Energy:   -76.02605987303025

   => Energetics <=

    Nuclear Repulsion Energy =              9.1117684262165355
    One-Electron Energy =                -122.9944399456852580
    Two-Electron Energy =                  37.8566116464384663
    Total Energy =                        -76.0260598730302490

Computation Completed


Properties will be evaluated at   0.000000,   0.000000,   0.000000 [a0]

Properties computed using the SCF density matrix

  Nuclear Dipole Moment: [e a0]
     X:     0.0000      Y:     0.0000      Z:    -1.0140

  Electronic Dipole Moment: [e a0]
     X:     0.0000      Y:     0.0000      Z:     0.1857

  Dipole Moment: [e a0]
     X:     0.0000      Y:     0.0000      Z:    -0.8283     Total:     0.8283

  Dipole Moment: [D]
     X:     0.0000      Y:     0.0000      Z:    -2.1054     Total:     2.1054


*** tstop() called on atl1-1-02-012-5-l.pace.gatech.edu at Tue May 10 17:00:20 2022
Module time:
	user time   =       0.19 seconds =       0.00 minutes
	system time =       0.00 seconds =       0.00 minutes
	total time  =          1 seconds =       0.02 minutes
Total time:
	user time   =       1.91 seconds =       0.03 minutes
	system time =       0.71 seconds =       0.01 minutes
	total time  =         12 seconds =       0.20 minutes

  A requested method does not make use of molecular symmetry: further calculations in C1 point group.

  Constructing Basis Sets for DFOCC...

   => Loading Basis Set <=

    Name: (CC-PVDZ AUX)
    Role: JKFIT
    Keyword: DF_BASIS_SCF
    atoms 1, 3 entry H          line    51 file /usr/local/pace-apps/manual/packages/psi4/1.3.2/intel-19.0.5/share/psi4/basis/cc-pvdz-jkfit.gbs 
    atoms 2    entry O          line   221 file /usr/local/pace-apps/manual/packages/psi4/1.3.2/intel-19.0.5/share/psi4/basis/cc-pvdz-jkfit.gbs 

   => Loading Basis Set <=

    Name: (CC-PVDZ AUX)
    Role: RIFIT
    Keyword: DF_BASIS_CC
    atoms 1, 3 entry H          line    19 file /usr/local/pace-apps/manual/packages/psi4/1.3.2/intel-19.0.5/share/psi4/basis/cc-pvdz-ri.gbs 
    atoms 2    entry O          line   235 file /usr/local/pace-apps/manual/packages/psi4/1.3.2/intel-19.0.5/share/psi4/basis/cc-pvdz-ri.gbs 


*** tstart() called on atl1-1-02-012-5-l.pace.gatech.edu
*** at Tue May 10 17:00:20 2022



  Module DFOCC Options:
  ----------------------------------------------------------------------------
  ACTIVE                        => (empty)         !
  BASIS_RELATIVISTIC            => (empty)         !
  BENCH                         => (empty)         !
  CC_DIIS_MAX_VECS              => (empty)         !
  CC_DIIS_MIN_VECS              => (empty)         !
  CC_LAMBDA                     => TRUE            !
  CC_MAXITER                    => (empty)         !
  CC_TYPE                       => DF              !
  CHOLESKY                      => (empty)         !
  CHOLESKY_TOLERANCE            => (empty)         !
  CI_TYPE                       => (empty)         !
  COMPUT_S2                     => (empty)         !
  CUBEPROP_BASIS_FUNCTIONS      => (empty)         !
  CUBEPROP_FILEPATH             => (empty)         !
  CUBEPROP_ISOCONTOUR_THRESHOLD => (empty)         !
  CUBEPROP_ORBITALS             => (empty)         !
  CUBEPROP_TASKS                => (empty)         !
  CUBIC_BASIS_TOLERANCE         => (empty)         !
  CUBIC_BLOCK_MAX_POINTS        => (empty)         !
  CUBIC_GRID_OVERAGE            => (empty)         !
  CUBIC_GRID_SPACING            => (empty)         !
  CUTOFF                        => (empty)         !
  DEBUG                         => (empty)         !
  DERTYPE                       => FIRST           !
  DF_BASIS_CC                   => (empty)         !
  DIE_IF_NOT_CONVERGED          => (empty)         !
  DKH_ORDER                     => (empty)         !
  DOCC                          => (empty)         !
  DO_DIIS                       => (empty)         !
  DO_LEVEL_SHIFT                => (empty)         !
  DO_SCS                        => FALSE           !
  DO_SOS                        => FALSE           !
  E3_SCALE                      => (empty)         !
  EKT_IP                        => (empty)         !
  EXTERNAL_POTENTIAL_SYMMETRY   => (empty)         !
  E_CONVERGENCE                 => 1e-08           !
  FREEZE_CORE                   => TRUE            !
  FROZEN_DOCC                   => (empty)         !
  FROZEN_UOCC                   => (empty)         !
  HESS_TYPE                     => (empty)         !
  INTEGRAL_CUTOFF               => (empty)         !
  INTEGRAL_PACKAGE              => (empty)         !
  LEVEL_SHIFT                   => (empty)         !
  LINEQ_SOLVER                  => (empty)         !
  LITERAL_CFOUR                 => (empty)         !
  MAT_NUM_COLUMN_PRINT          => (empty)         !
  MAX_MOGRAD_CONVERGENCE        => (empty)         !
  MOLDEN_WITH_VIRTUAL           => (empty)         !
  MOLDEN_WRITE                  => (empty)         !
  MO_DIIS_NUM_VECS              => (empty)         !
  MO_MAXITER                    => (empty)         !
  MO_STEP_MAX                   => (empty)         !
  MP2_AMP_TYPE                  => (empty)         !
  MP2_OS_SCALE                  => (empty)         !
  MP2_SOS_SCALE                 => (empty)         !
  MP2_SOS_SCALE2                => (empty)         !
  MP2_SS_SCALE                  => (empty)         !
  MP2_TYPE                      => DF              !
  MP_TYPE                       => (empty)         !
  NAT_ORBS                      => (empty)         !
  NUM_FROZEN_DOCC               => (empty)         !
  NUM_FROZEN_UOCC               => (empty)         !
  NUM_GPUS                      => (empty)         !
  OCC_ORBS_PRINT                => (empty)         !
  OEPROP                        => (empty)         !
  OO_SCALE                      => (empty)         !
  OPT_METHOD                    => (empty)         !
  ORB_OPT                       => FALSE           !
  ORB_RESP_SOLVER               => (empty)         !
  ORTH_TYPE                     => (empty)         !
  PCG_BETA_TYPE                 => (empty)         !
  PCG_CONVERGENCE               => (empty)         !
  PCG_MAXITER                   => (empty)         !
  PCM                           => (empty)         !
  PPL_TYPE                      => (empty)         !
  PRINT                         => (empty)         !
  PRINT_NOONS                   => (empty)         !
  PROPERTIES                    => (empty)         !
  PROPERTIES_ORIGIN             => (empty)         !
  PUREAM                        => (empty)         !
  QCHF                          => (empty)         !
  QC_MODULE                     => (empty)         !
  RAS1                          => (empty)         !
  RAS2                          => (empty)         !
  RAS3                          => (empty)         !
  RAS4                          => (empty)         !
  READ_SCF_3INDEX               => (empty)         !
  REGULARIZATION                => (empty)         !
  REG_PARAM                     => (empty)         !
  RELATIVISTIC                  => (empty)         !
  RESTRICTED_DOCC               => (empty)         !
  RESTRICTED_UOCC               => (empty)         !
  RMS_MOGRAD_CONVERGENCE        => (empty)         !
  R_CONVERGENCE                 => (empty)         !
  SCF_TYPE                      => DISK_DF         !
  SCS_TYPE                      => (empty)         !
  SOCC                          => (empty)         !
  SOS_TYPE                      => (empty)         !
  TRIPLES_IABC_TYPE             => (empty)         !
  WFN                           => (empty)         !
  WFN_TYPE                      => DF-CCSD(T)      !
  WRITER_FILE_LABEL             => (empty)         !


 ============================================================================== 
 ============================================================================== 
 ============================================================================== 

                       DF-CCSD   
              Program Written by Ugur Bozkaya
              Latest Revision September 9, 2017

 ============================================================================== 
 ============================================================================== 
 ============================================================================== 

	MO spaces... 

	 FC   OCC   VIR   FV 
	----------------------
	  1    4    19    0

	Number of basis functions in the DF-CC basis:  84
	Reading DF integrals from disk ...
	Number of basis functions in the DF-HF basis: 116

	Available memory                      :   9536.74 MB 
	Memory requirement for 3-index ints   :      0.29 MB 
	Memory requirement for DF-CC int trans:      0.89 MB 
	Memory requirement for CC contractions:      0.18 MB 
	Total memory requirement for DF+CC int:      0.47 MB 
	Memory requirement for Wabef term (T2):      0.99 MB 
	Memory requirement for Wefab term (L2):      1.00 MB 
[...]
	Memory requirement for CC contractions:      0.18 MB 
	Total memory requirement for DF+CC int:      0.47 MB 
	Memory requirement for Wabef term (T2):      0.99 MB 
	Memory requirement for Wefab term (L2):      1.00 MB 
	Memory for high mem Wabef algorithm   :      1.27 MB 
	I will use the HIGH_MEM Wabef algorithm! 
	Memory requirement for (T) correction :      0.41 MB 

	Computing DF-MP2 energy ... 
	======================================================================= 
	Nuclear Repulsion Energy (a.u.)    :     9.11540779957502
	DF-HF Energy (a.u.)                :   -76.02608820062078
	REF Energy (a.u.)                  :   -76.02608820062078
	DF-MP2 Correlation Energy (a.u.)   :    -0.20251660299382
	DF-MP2 Total Energy (a.u.)         :   -76.22860480361460
	======================================================================= 

 ============================================================================== 
 ================ Performing DF-CCSD iterations... ============================ 
 ============================================================================== 

  Iter       E_corr                  DE                 T2 RMS        T1 RMS     
  ----   ----------------      ----------------       ----------    ----------   
   1      -0.2076736200         -0.0051570170         3.13e-04      1.50e-03 
   2      -0.2117559822         -0.0040823623         1.23e-04      2.71e-04 
   3      -0.2121863219         -0.0004303397         2.84e-05      1.49e-04 
   4      -0.2121975106         -0.0000111887         7.01e-06      2.71e-05 
   5      -0.2122090412         -0.0000115305         1.47e-06      1.50e-05 
   6      -0.2122071284          0.0000019128         4.53e-07      5.24e-06 
   7      -0.2122073436         -0.0000002152         1.01e-07      1.52e-06 
   8      -0.2122067918          0.0000005518         3.96e-08      2.57e-07 
   9      -0.2122067700          0.0000000218         8.47e-09      4.30e-08 
  10      -0.2122067456          0.0000000244         2.22e-09      5.29e-09 
  11      -0.2122067460         -0.0000000005         4.53e-10      1.63e-09 

 ============================================================================== 
 ===================== DF-CCSD ITERATIONS ARE CONVERGED ======================= 
 ============================================================================== 

	T1 diagnostic reference value:     0.02000000000000
	T1 diagnostic                :     0.00606565868749

	======================================================================= 
	================ CCSD FINAL RESULTS =================================== 
	======================================================================= 
	Nuclear Repulsion Energy (a.u.)    :     9.11540779957502
	SCF Energy (a.u.)                  :   -76.02608820062078
	REF Energy (a.u.)                  :   -76.02608820062078
	DF-CCSD Correlation Energy (a.u.)  :    -0.21220674602286
	DF-CCSD Total Energy (a.u.)        :   -76.23829494664363
	======================================================================= 


*** tstop() called on atl1-1-02-012-5-l.pace.gatech.edu at Tue May 10 17:01:01 2022
Module time:
	user time   =       0.12 seconds =       0.00 minutes
	system time =       0.08 seconds =       0.00 minutes
	total time  =          2 seconds =       0.03 minutes
Total time:
	user time   =      10.24 seconds =       0.17 minutes
	system time =       3.06 seconds =       0.05 minutes
	total time  =         53 seconds =       0.88 minutes

*** tstart() called on atl1-1-02-012-5-l.pace.gatech.edu
*** at Tue May 10 17:01:01 2022


 ============================================================================== 
 ============================================================================== 
 ============================================================================== 

                       DF-CCSD(T)   
              Program Written by Ugur Bozkaya
              Latest Revision April 16, 2017

 ============================================================================== 
 ============================================================================== 
 ============================================================================== 

	Computing (T) correction...
	nthreads: 1 
	Number of ijk combinations: 64 
               10.9         0 s
               20.3         0 s
               31.2         0 s
               40.6         0 s
               50.0         0 s
               60.9         0 s
               70.3         0 s
               81.2         0 s
               90.6         0 s
              100.0         0 s
	(T) Correction (a.u.)              :    -0.00310687464612
	DF-CCSD(T) Total Energy (a.u.)     :   -76.24140182128976

*** tstop() called on atl1-1-02-012-5-l.pace.gatech.edu at Tue May 10 17:01:01 2022
Module time:
	user time   =       0.09 seconds =       0.00 minutes
	system time =       0.00 seconds =       0.00 minutes
	total time  =          0 seconds =       0.00 minutes
Total time:
	user time   =      10.33 seconds =       0.17 minutes
	system time =       3.06 seconds =       0.05 minutes
	total time  =         53 seconds =       0.88 minutes

*** tstart() called on atl1-1-02-012-5-l.pace.gatech.edu
*** at Tue May 10 17:01:01 2022


 ============================================================================== 
 ================ Performing DF-CCSDL iterations... =========================== 
 ============================================================================== 

  Iter       E_corr                  DE                 L2 RMS        L1 RMS     
  ----   ----------------      ----------------       ----------    ----------   
   1      -0.2155575452         -0.0033507991         1.10e-04      5.71e-04 
   2      -0.2151335392          0.0004240060         1.55e-05      1.58e-04 
   3      -0.2151280516          0.0000054876         5.47e-06      3.18e-05 
   4      -0.2151393411         -0.0000112895         1.12e-06      1.32e-05 
   5      -0.2151402109         -0.0000008698         3.34e-07      3.81e-06 
   6      -0.2151402156         -0.0000000047         8.82e-08      1.49e-06 

 ============================================================================== 
 ===================== DF-CCSDL ITERATIONS ARE CONVERGED ====================== 
 ============================================================================== 

	Computing 3-index intermediates...

*** tstop() called on atl1-1-02-012-5-l.pace.gatech.edu at Tue May 10 17:01:03 2022
Module time:
	user time   =       0.08 seconds =       0.00 minutes
	system time =       0.11 seconds =       0.00 minutes
	total time  =          2 seconds =       0.03 minutes
Total time:
	user time   =      10.41 seconds =       0.17 minutes
	system time =       3.17 seconds =       0.05 minutes
	total time  =         55 seconds =       0.92 minutes

*** tstart() called on atl1-1-02-012-5-l.pace.gatech.edu
*** at Tue May 10 17:01:03 2022


 ============================================================================== 
 ============================================================================== 
 ============================================================================== 

                         DFPDM   
              Particle Density Matrix Code   
               for Density-Fitted Methods       
                   by Ugur Bozkaya
              Latest Revision December 19, 2016

 ============================================================================== 
 ============================================================================== 
 ============================================================================== 

	Computing unrelaxed response density matrices...

	Forming independent-pairs...
	Number of independent-pairs:  95
	Computing the generalized Fock matrix (GFM)...
	Computing the orbital gradient...
	Forming strictly canonical effective orbital gradient...
	Solving orbital Z-vector equations...

	            PCG Solver 
	   ------------------------------ 
	Iter     RMS Z Vector        RMS Residual  
	----    ---------------    ---------------
	  1         2.85e-04         1.41e-04
	  2         4.92e-05         6.14e-05
	  3         2.89e-05         1.15e-05
	  4         3.81e-06         2.64e-06
	  5         6.04e-07         3.55e-07

	Computing the relaxed PDMs and GFM...

*** tstop() called on atl1-1-02-012-5-l.pace.gatech.edu at Tue May 10 17:01:03 2022
Module time:
	user time   =       0.01 seconds =       0.00 minutes
	system time =       0.03 seconds =       0.00 minutes
	total time  =          0 seconds =       0.00 minutes
Total time:
	user time   =      10.42 seconds =       0.17 minutes
	system time =       3.20 seconds =       0.05 minutes
	total time  =         55 seconds =       0.92 minutes

*** tstart() called on atl1-1-02-012-5-l.pace.gatech.edu
*** at Tue May 10 17:01:03 2022


 ============================================================================== 
 ============================================================================== 
 ============================================================================== 

                         DFGRAD   
            A General Analytic Gradients Code   
               for Density-Fitted Methods       
                   by Ugur Bozkaya
              Latest Revision December 19, 2016

 ============================================================================== 
 ============================================================================== 
 ============================================================================== 

	Analytic gradients computation is starting...
	Forming Gamma^tilde...
	Backtransforming OPDM, TPDM, and GFM to the AO basis...
	Computing analytic gradients...

  -Nuclear Gradient:
     Atom            X                  Y                   Z
    ------   -----------------  -----------------  -----------------
       1        0.000000000000    -1.995266301914     1.517648185827
       2        0.000000000000     0.014568327838    -3.023146955034
       3        0.000000000000     1.980697974076     1.505498769208


  -Core Hamiltonian Gradient:
     Atom            X                  Y                   Z
    ------   -----------------  -----------------  -----------------
       1       -0.000000000000     4.820187696089    -3.829620903996
       2        0.000000000000    -0.018472904309     7.640434228448
       3        0.000000000000    -4.801714791781    -3.810813324452


  -Overlap Gradient:
     Atom            X                  Y                   Z
    ------   -----------------  -----------------  -----------------
       1       -0.000000000000    -0.277506203102     0.240398130782
       2        0.000000000000     0.000746607483    -0.479824157469
       3       -0.000000000000     0.276759595619     0.239426026687


  -One-Electron Gradient:
     Atom            X                  Y                   Z
    ------   -----------------  -----------------  -----------------
       1       -0.000000000000     4.820187696089    -3.829620903996
       2        0.000000000000    -0.018472904309     7.640434228448
       3        0.000000000000    -4.801714791781    -3.810813324452


  -Two-Electron Gradient:
     Atom            X                  Y                   Z
    ------   -----------------  -----------------  -----------------
       1        0.000000000000    -2.549011400067     2.072866824778
       2       -0.000000000000     0.006262667629    -4.137528492910
       3       -0.000000000000     2.542748732438     2.064661668132


  -Total Gradient:
     Atom            X                  Y                   Z
    ------   -----------------  -----------------  -----------------
       1       -0.000000000000    -0.001596208994     0.001292237390
       2       -0.000000000000     0.003104698641    -0.000065376965
       3        0.000000000000    -0.001508489647    -0.001226860426


*** tstop() called on atl1-1-02-012-5-l.pace.gatech.edu at Tue May 10 17:01:03 2022
Module time:
	user time   =       0.10 seconds =       0.00 minutes
	system time =       0.02 seconds =       0.00 minutes
	total time  =          0 seconds =       0.00 minutes
Total time:
	user time   =      10.52 seconds =       0.18 minutes
	system time =       3.22 seconds =       0.05 minutes
	total time  =         55 seconds =       0.92 minutes

         ----------------------------------------------------------
                                   FINDIF
                     R. A. King and Jonathon Misiewicz
         ---------------------------------------------------------

  Computing second-derivative from gradients using projected, 
  symmetry-adapted, cartesian coordinates.

  6 gradients passed in, including the reference geometry.
  Generating complete list of displacements from unique ones.

    Operation 2 takes plus displacements of irrep B2 to minus ones.

-------------------------------------------------------------


  ==> Harmonic Vibrational Analysis <==

  non-mass-weighted Hessian:       Symmetric? True   Hermitian? True   Lin Dep Dim?  6 (0)
  projection of translations (True) and rotations (True) removed 6 degrees of freedom (6)
  total projector:                 Symmetric? True   Hermitian? True   Lin Dep Dim?  6 (6)
  mass-weighted Hessian:           Symmetric? True   Hermitian? True   Lin Dep Dim?  6 (0)
  pre-proj  low-frequency mode:    0.0000i [cm^-1]
  pre-proj  low-frequency mode:    0.0000i [cm^-1]
  pre-proj  low-frequency mode:    0.0000i [cm^-1]
  pre-proj  low-frequency mode:    0.0000i [cm^-1]
  pre-proj  low-frequency mode:    0.0000  [cm^-1]
  pre-proj  low-frequency mode:    0.0000  [cm^-1]
  pre-proj  all modes:['0.0000i' '0.0000i' '0.0000i' '0.0000i' '0.0000' '0.0000' '1690.5939'
 '3822.2173' '3929.1246']
  projected mass-weighted Hessian: Symmetric? True   Hermitian? True   Lin Dep Dim?  6 (6)
  post-proj low-frequency mode:    0.0000i [cm^-1] (TR)
  post-proj low-frequency mode:    0.0000  [cm^-1] (TR)
  post-proj low-frequency mode:    0.0000  [cm^-1] (TR)
  post-proj low-frequency mode:    0.0001  [cm^-1] (TR)
  post-proj low-frequency mode:    0.0001  [cm^-1] (TR)
  post-proj low-frequency mode:    0.0001  [cm^-1] (TR)
  post-proj  all modes:['0.0000i' '0.0000' '0.0000' '0.0001' '0.0001' '0.0001' '1690.5939'
 '3822.2173' '3929.1246']

  Vibration                       7                   8                   9           
  Freq [cm^-1]                1690.5939           3822.2173           3929.1246       
  Irrep                           A                   A                   A           
  Reduced mass [u]              1.0810              1.0467              1.0793        
  Force const [mDyne/A]         1.8203              9.0099              9.8168        
  Turning point v=0 [a0]        0.2567              0.1735              0.1685        
  RMS dev v=0 [a0 u^1/2]        0.1887              0.1255              0.1238        
  Char temp [K]               2432.3882           5499.3197           5653.1356       
  ----------------------------------------------------------------------------------
      1   H                0.00  0.44  0.55   -0.00  0.58 -0.40   -0.00  0.55 -0.44   
      2   O               -0.00  0.00 -0.07   -0.00 -0.00  0.05    0.00 -0.07 -0.00   
      3   H               -0.00 -0.44  0.55    0.00 -0.58 -0.40    0.00  0.55  0.44   

  ==> Thermochemistry Components <==

  Entropy, S
    Electronic S            0.000 [cal/(mol K)]        0.000 [J/(mol K)]       0.00000000 [mEh/K] (multiplicity = 1)
    Translational S        34.608 [cal/(mol K)]      144.801 [J/(mol K)]       0.05515177 [mEh/K] (mol. weight = 18.0106 [u], P = 101325.00 [Pa])
    Rotational S           10.520 [cal/(mol K)]       44.017 [J/(mol K)]       0.01676538 [mEh/K] (symmetry no. = 2)
    Vibrational S           0.005 [cal/(mol K)]        0.022 [J/(mol K)]       0.00000831 [mEh/K]
  Total S                  45.134 [cal/(mol K)]      188.840 [J/(mol K)]       0.07192546 [mEh/K]
  Correction S              0.000 [cal/(mol K)]        0.000 [J/(mol K)]       0.00000000 [mEh/K]

  Constant volume heat capacity, Cv
    Electronic Cv           0.000 [cal/(mol K)]        0.000 [J/(mol K)]       0.00000000 [mEh/K]
    Translational Cv        2.981 [cal/(mol K)]       12.472 [J/(mol K)]       0.00475022 [mEh/K]
    Rotational Cv           2.981 [cal/(mol K)]       12.472 [J/(mol K)]       0.00475022 [mEh/K]
    Vibrational Cv          0.038 [cal/(mol K)]        0.159 [J/(mol K)]       0.00006041 [mEh/K]
  Total Cv                  6.000 [cal/(mol K)]       25.102 [J/(mol K)]       0.00956084 [mEh/K]
  Correction Cv             0.000 [cal/(mol K)]        0.000 [J/(mol K)]       0.00000000 [mEh/K]

  Constant pressure heat capacity, Cp
    Electronic Cp           0.000 [cal/(mol K)]        0.000 [J/(mol K)]       0.00000000 [mEh/K]
    Translational Cp        4.968 [cal/(mol K)]       20.786 [J/(mol K)]       0.00791703 [mEh/K]
    Rotational Cp           2.981 [cal/(mol K)]       12.472 [J/(mol K)]       0.00475022 [mEh/K]
    Vibrational Cp          0.038 [cal/(mol K)]        0.159 [J/(mol K)]       0.00006041 [mEh/K]
  Total Cp                  7.987 [cal/(mol K)]       33.416 [J/(mol K)]       0.01272765 [mEh/K]
  Correction Cp             0.000 [cal/(mol K)]        0.000 [J/(mol K)]       0.00000000 [mEh/K]

  ==> Thermochemistry Energy Analysis <==

  Raw electronic energy, E0
  Total E0, Electronic energy at well bottom at 0 [K]                  -76.24140912 [Eh]

  Zero-point energy, ZPE_vib = Sum_i nu_i / 2
    Electronic ZPE          0.000 [kcal/mol]        0.000 [kJ/mol]       0.00000000 [Eh]
    Translational ZPE       0.000 [kcal/mol]        0.000 [kJ/mol]       0.00000000 [Eh]
    Rotational ZPE          0.000 [kcal/mol]        0.000 [kJ/mol]       0.00000000 [Eh]
    Vibrational ZPE        13.498 [kcal/mol]       56.475 [kJ/mol]       0.02151031 [Eh]        4720.968 [cm^-1]
  Correction ZPE           13.498 [kcal/mol]       56.475 [kJ/mol]       0.02151031 [Eh]        4720.968 [cm^-1]
  Total ZPE, Electronic energy at 0 [K]                                -76.21989881 [Eh]

  Thermal Energy, E (includes ZPE)
    Electronic E            0.000 [kcal/mol]        0.000 [kJ/mol]       0.00000000 [Eh]
    Translational E         0.889 [kcal/mol]        3.718 [kJ/mol]       0.00141628 [Eh]
    Rotational E            0.889 [kcal/mol]        3.718 [kJ/mol]       0.00141628 [Eh]
    Vibrational E          13.499 [kcal/mol]       56.481 [kJ/mol]       0.02151252 [Eh]
  Correction E             15.277 [kcal/mol]       63.918 [kJ/mol]       0.02434507 [Eh]
  Total E, Electronic energy at  298.15 [K]                            -76.21706405 [Eh]

  Enthalpy, H_trans = E_trans + k_B * T
    Electronic H            0.000 [kcal/mol]        0.000 [kJ/mol]       0.00000000 [Eh]
    Translational H         1.481 [kcal/mol]        6.197 [kJ/mol]       0.00236046 [Eh]
    Rotational H            0.889 [kcal/mol]        3.718 [kJ/mol]       0.00141628 [Eh]
    Vibrational H          13.499 [kcal/mol]       56.481 [kJ/mol]       0.02151252 [Eh]
  Correction H             15.869 [kcal/mol]       66.397 [kJ/mol]       0.02528926 [Eh]
  Total H, Enthalpy at  298.15 [K]                                     -76.21611986 [Eh]

  Gibbs free energy, G = H - T * S
    Electronic G            0.000 [kcal/mol]        0.000 [kJ/mol]       0.00000000 [Eh]
    Translational G        -8.837 [kcal/mol]      -36.975 [kJ/mol]      -0.01408304 [Eh]
    Rotational G           -2.248 [kcal/mol]       -9.405 [kJ/mol]      -0.00358232 [Eh]
    Vibrational G          13.498 [kcal/mol]       56.475 [kJ/mol]       0.02151004 [Eh]
  Correction G              2.413 [kcal/mol]       10.094 [kJ/mol]       0.00384468 [Eh]
  Total G, Free enthalpy at  298.15 [K]                                -76.23756444 [Eh]

    Psi4 stopped on: Tuesday, 10 May 2022 05:01PM
    Psi4 wall time for execution: 0:00:55.12

*** Psi4 exiting successfully. Buy a developer a beer!
