
    -----------------------------------------------------------------------
          Psi4: An Open-Source Ab Initio Electronic Structure Package
                               Psi4 1.3.2 release

                         Git: Rev {} zzzzzzz 


    R. M. Parrish, L. A. Burns, D. G. A. Smith, A. C. Simmonett,
    A. E. DePrince III, E. G. Hohenstein, U. Bozkaya, A. Yu. Sokolov,
    R. Di Remigio, R. M. Richard, J. F. Gonthier, A. M. James,
    H. R. McAlexander, A. Kumar, M. Saitow, X. Wang, B. P. Pritchard,
    P. Verma, H. F. Schaefer III, K. Patkowski, R. A. King, E. F. Valeev,
    F. A. Evangelista, J. M. Turney, T. D. Crawford, and C. D. Sherrill,
    J. Chem. Theory Comput. 13(7) pp 3185--3197 (2017).
    (doi: 10.1021/acs.jctc.7b00174)


                         Additional Contributions by
    P. Kraus, H. Kruse, M. H. Lechner, M. C. Schieber, R. A. Shaw,
    A. Alenaizan, R. Galvelis, Z. L. Glick, S. Lehtola, and J. P. Misiewicz

    -----------------------------------------------------------------------


    Psi4 started on: Tuesday, 10 May 2022 04:59PM

    Process ID: 47102
    Host:       atl1-1-02-012-5-l.pace.gatech.edu
    PSIDATADIR: /usr/local/pace-apps/manual/packages/psi4/1.3.2/intel-19.0.5/share/psi4
    Memory:     500.0 MiB
    Threads:    1
    
  ==> Input File <==

--------------------------------------------------------------------------
#PSI4 file for HOH opt

memory 10 GB

molecule mol {
0 1
H 
O 1 OH
H 2 OH 1 HOH

OH = 1
HOH = 104.5
}

set {
  scf_type df
  mp2_type df
  cc_type df
  freeze_core true
  basis cc-pvtz
}

optimize('ccsd(t)')
frequencies('ccsd(t)')

--------------------------------------------------------------------------

  Memory set to   9.313 GiB by Python driver.
gradient() will perform analytic gradient computation.
    Method 'CCSD(T)' requires SCF_TYPE = DISK_DF, setting.

*** tstart() called on atl1-1-02-012-5-l.pace.gatech.edu
*** at Tue May 10 16:59:06 2022

   => Loading Basis Set <=

    Name: CC-PVTZ
    Role: ORBITAL
    Keyword: BASIS
    atoms 1, 3 entry H          line    23 file /usr/local/pace-apps/manual/packages/psi4/1.3.2/intel-19.0.5/share/psi4/basis/cc-pvtz.gbs 
    atoms 2    entry O          line   262 file /usr/local/pace-apps/manual/packages/psi4/1.3.2/intel-19.0.5/share/psi4/basis/cc-pvtz.gbs 


         ---------------------------------------------------------
                                   SCF
               by Justin Turney, Rob Parrish, Andy Simmonett
                          and Daniel G. A. Smith
                              RHF Reference
                        1 Threads,   9536 MiB Core
         ---------------------------------------------------------

  ==> Geometry <==

    Molecular point group: c2v
    Full point group: C2v

    Geometry (in Angstrom), charge = 0, multiplicity = 1:

       Center              X                  Y                   Z               Mass       
    ------------   -----------------  -----------------  -----------------  -----------------
         H            0.000000000000     0.790689573744    -0.543701060715     1.007825032230
         O            0.000000000000     0.000000000000     0.068516219320    15.994914619570
         H            0.000000000000    -0.790689573744    -0.543701060715     1.007825032230

  Running in c2v symmetry.

  Rotational constants: A =     25.12555  B =     13.37733  C =      8.72955 [cm^-1]
  Rotational constants: A = 753245.07149  B = 401042.16706  C = 261705.25473 [MHz]
  Nuclear repulsion =    8.801465564567406

  Charge       = 0
  Multiplicity = 1
  Electrons    = 10
  Nalpha       = 5
  Nbeta        = 5

  ==> Algorithm <==

  SCF Algorithm Type is DISK_DF.
  DIIS enabled.
  MOM disabled.
  Fractional occupation disabled.
  Guess Type is SAD.
  Energy threshold   = 1.00e-10
  Density threshold  = 1.00e-10
  Integral threshold = 0.00e+00

  ==> Primary Basis <==

  Basis Set: CC-PVTZ
    Blend: CC-PVTZ
    Number of shells: 22
    Number of basis function: 58
    Number of Cartesian functions: 65
    Spherical Harmonics?: true
    Max angular momentum: 3

   => Loading Basis Set <=

    Name: (CC-PVTZ AUX)
    Role: JKFIT
    Keyword: DF_BASIS_SCF
    atoms 1, 3 entry H          line    51 file /usr/local/pace-apps/manual/packages/psi4/1.3.2/intel-19.0.5/share/psi4/basis/cc-pvtz-jkfit.gbs 
    atoms 2    entry O          line   229 file /usr/local/pace-apps/manual/packages/psi4/1.3.2/intel-19.0.5/share/psi4/basis/cc-pvtz-jkfit.gbs 

  ==> Pre-Iterations <==

   -------------------------------------------------------
    Irrep   Nso     Nmo     Nalpha   Nbeta   Ndocc  Nsocc
   -------------------------------------------------------
     A1        23      23       0       0       0       0
     A2         7       7       0       0       0       0
     B1        11      11       0       0       0       0
     B2        17      17       0       0       0       0
   -------------------------------------------------------
    Total      58      58       5       5       5       0
   -------------------------------------------------------

  ==> Integral Setup <==

  ==> DiskDFJK: Density-Fitted J/K Matrices <==

    J tasked:                  Yes
    K tasked:                  Yes
    wK tasked:                  No
    OpenMP threads:              1
    Integrals threads:           1
    Memory [MiB]:             7152
    Algorithm:                Core
    Integral Cache:           SAVE
    Schwarz Cutoff:          1E-12
    Fitting Condition:       1E-10

   => Auxiliary Basis Set <=

  Basis Set: (CC-PVTZ AUX)
    Blend: CC-PVTZ-JKFIT
    Number of shells: 45
    Number of basis function: 139
    Number of Cartesian functions: 166
    Spherical Harmonics?: true
    Max angular momentum: 4

  Minimum eigenvalue in the overlap matrix is 2.9026033530E-03.
  Using Symmetric Orthogonalization.

  SCF Guess: Superposition of Atomic Densities via on-the-fly atomic UHF.

  ==> Iterations <==

                           Total Energy        Delta E     RMS |[F,P]|

   @DF-RHF iter SAD:   -75.44807830241216   -7.54481e+01   0.00000e+00 
   @DF-RHF iter   1:   -75.97024965857618   -5.22171e-01   1.42962e-02 DIIS
   @DF-RHF iter   2:   -76.02234132073482   -5.20917e-02   9.66285e-03 DIIS
   @DF-RHF iter   3:   -76.05049330685763   -2.81520e-02   7.32828e-04 DIIS
   @DF-RHF iter   4:   -76.05094958140896   -4.56275e-04   1.94076e-04 DIIS
   @DF-RHF iter   5:   -76.05098397707577   -3.43957e-05   4.02515e-05 DIIS
   @DF-RHF iter   6:   -76.05098612316739   -2.14609e-06   7.76317e-06 DIIS
   @DF-RHF iter   7:   -76.05098620210389   -7.89365e-08   1.25011e-06 DIIS
   @DF-RHF iter   8:   -76.05098620385216   -1.74828e-09   2.23160e-07 DIIS
   @DF-RHF iter   9:   -76.05098620391300   -6.08367e-11   6.43251e-08 DIIS
   @DF-RHF iter  10:   -76.05098620391823   -5.22959e-12   7.27806e-09 DIIS
   @DF-RHF iter  11:   -76.05098620391831   -8.52651e-14   1.04764e-09 DIIS
   @DF-RHF iter  12:   -76.05098620391831    0.00000e+00   1.69445e-10 DIIS
   @DF-RHF iter  13:   -76.05098620391831    0.00000e+00   1.82350e-11 DIIS
  Energy and wave function converged.


  ==> Post-Iterations <==

    Orbital Energies [Eh]
    ---------------------

    Doubly Occupied:                                                      

       1A1   -20.562138     2A1    -1.324719     1B2    -0.687037  
       3A1    -0.569630     1B1    -0.501255  

    Virtual:                                                              

       4A1     0.137557     2B2     0.199842     3B2     0.526492  
       5A1     0.576831     6A1     0.677461     2B1     0.785997  
       7A1     0.793875     4B2     0.805787     1A2     0.852292  
       3B1     0.951778     8A1     1.165822     5B2     1.172443  
       6B2     1.489228     9A1     1.501210     4B1     2.019244  
       2A2     2.048947     7B2     2.115800    10A1     2.157398  
      11A1     2.253311    12A1     2.570131     8B2     2.925729  
       5B1     3.356690    13A1     3.471321     3A2     3.552110  
       9B2     3.599876     6B1     3.766354    10B2     3.826770  
      14A1     3.874687     4A2     3.936042     7B1     4.015354  
      11B2     4.055492    15A1     4.135577     5A2     4.246989  
      16A1     4.323614    12B2     4.478353     8B1     4.645991  
      13B2     4.776742    17A1     5.012617    18A1     5.229074  
      14B2     5.516784     9B1     5.976687    19A1     6.414996  
      10B1     6.772506     6A2     6.849685    20A1     6.905158  
      15B2     6.934087    11B1     7.012922    21A1     7.168713  
       7A2     7.181120    22A1     7.433881    16B2     7.697134  
      17B2     8.106356    23A1    12.196039  

    Final Occupation by Irrep:
             A1    A2    B1    B2 
    DOCC [     3,    0,    1,    1 ]

  @DF-RHF Final Energy:   -76.05098620391831

   => Energetics <=

    Nuclear Repulsion Energy =              8.8014655645674065
    One-Electron Energy =                -122.4153440216662148
    Two-Electron Energy =                  37.5628922531805003
    Total Energy =                        -76.0509862039183133

Computation Completed


Properties will be evaluated at   0.000000,   0.000000,   0.000000 [a0]

Properties computed using the SCF density matrix

  Nuclear Dipole Moment: [e a0]
     X:     0.0000      Y:     0.0000      Z:    -1.0191

  Electronic Dipole Moment: [e a0]
     X:     0.0000      Y:     0.0000      Z:     0.2092

  Dipole Moment: [e a0]
     X:     0.0000      Y:     0.0000      Z:    -0.8099     Total:     0.8099

  Dipole Moment: [D]
     X:     0.0000      Y:     0.0000      Z:    -2.0586     Total:     2.0586


*** tstop() called on atl1-1-02-012-5-l.pace.gatech.edu at Tue May 10 16:59:07 2022
Module time:
	user time   =       0.46 seconds =       0.01 minutes
	system time =       0.01 seconds =       0.00 minutes
	total time  =          1 seconds =       0.02 minutes
Total time:
	user time   =       0.46 seconds =       0.01 minutes
	system time =       0.01 seconds =       0.00 minutes
	total time  =          1 seconds =       0.02 minutes

  A requested method does not make use of molecular symmetry: further calculations in C1 point group.

  Constructing Basis Sets for DFOCC...

   => Loading Basis Set <=

    Name: (CC-PVTZ AUX)
    Role: JKFIT
    Keyword: DF_BASIS_SCF
    atoms 1, 3 entry H          line    51 file /usr/local/pace-apps/manual/packages/psi4/1.3.2/intel-19.0.5/share/psi4/basis/cc-pvtz-jkfit.gbs 
    atoms 2    entry O          line   229 file /usr/local/pace-apps/manual/packages/psi4/1.3.2/intel-19.0.5/share/psi4/basis/cc-pvtz-jkfit.gbs 

   => Loading Basis Set <=

    Name: (CC-PVTZ AUX)
    Role: RIFIT
    Keyword: DF_BASIS_CC
    atoms 1, 3 entry H          line    19 file /usr/local/pace-apps/manual/packages/psi4/1.3.2/intel-19.0.5/share/psi4/basis/cc-pvtz-ri.gbs 
    atoms 2    entry O          line   305 file /usr/local/pace-apps/manual/packages/psi4/1.3.2/intel-19.0.5/share/psi4/basis/cc-pvtz-ri.gbs 


*** tstart() called on atl1-1-02-012-5-l.pace.gatech.edu
*** at Tue May 10 16:59:07 2022



  Module DFOCC Options:
  ----------------------------------------------------------------------------
  ACTIVE                        => (empty)         !
  BASIS_RELATIVISTIC            => (empty)         !
  BENCH                         => (empty)         !
  CC_DIIS_MAX_VECS              => (empty)         !
  CC_DIIS_MIN_VECS              => (empty)         !
  CC_LAMBDA                     => TRUE            !
  CC_MAXITER                    => (empty)         !
  CC_TYPE                       => DF              !
  CHOLESKY                      => (empty)         !
  CHOLESKY_TOLERANCE            => (empty)         !
  CI_TYPE                       => (empty)         !
  COMPUT_S2                     => (empty)         !
  CUBEPROP_BASIS_FUNCTIONS      => (empty)         !
  CUBEPROP_FILEPATH             => (empty)         !
  CUBEPROP_ISOCONTOUR_THRESHOLD => (empty)         !
  CUBEPROP_ORBITALS             => (empty)         !
  CUBEPROP_TASKS                => (empty)         !
  CUBIC_BASIS_TOLERANCE         => (empty)         !
  CUBIC_BLOCK_MAX_POINTS        => (empty)         !
  CUBIC_GRID_OVERAGE            => (empty)         !
  CUBIC_GRID_SPACING            => (empty)         !
  CUTOFF                        => (empty)         !
  DEBUG                         => (empty)         !
  DERTYPE                       => FIRST           !
  DF_BASIS_CC                   => (empty)         !
  DIE_IF_NOT_CONVERGED          => (empty)         !
  DKH_ORDER                     => (empty)         !
  DOCC                          => (empty)         !
  DO_DIIS                       => (empty)         !
  DO_LEVEL_SHIFT                => (empty)         !
  DO_SCS                        => FALSE           !
  DO_SOS                        => FALSE           !
  E3_SCALE                      => (empty)         !
  EKT_IP                        => (empty)         !
  EXTERNAL_POTENTIAL_SYMMETRY   => (empty)         !
  E_CONVERGENCE                 => 1e-08           !
  FREEZE_CORE                   => TRUE            !
  FROZEN_DOCC                   => (empty)         !
  FROZEN_UOCC                   => (empty)         !
  HESS_TYPE                     => (empty)         !
  INTEGRAL_CUTOFF               => (empty)         !
  INTEGRAL_PACKAGE              => (empty)         !
  LEVEL_SHIFT                   => (empty)         !
  LINEQ_SOLVER                  => (empty)         !
  LITERAL_CFOUR                 => (empty)         !
  MAT_NUM_COLUMN_PRINT          => (empty)         !
  MAX_MOGRAD_CONVERGENCE        => (empty)         !
  MOLDEN_WITH_VIRTUAL           => (empty)         !
  MOLDEN_WRITE                  => (empty)         !
  MO_DIIS_NUM_VECS              => (empty)         !
  MO_MAXITER                    => (empty)         !
  MO_STEP_MAX                   => (empty)         !
  MP2_AMP_TYPE                  => (empty)         !
  MP2_OS_SCALE                  => (empty)         !
  MP2_SOS_SCALE                 => (empty)         !
  MP2_SOS_SCALE2                => (empty)         !
  MP2_SS_SCALE                  => (empty)         !
  MP2_TYPE                      => DF              !
  MP_TYPE                       => (empty)         !
  NAT_ORBS                      => (empty)         !
  NUM_FROZEN_DOCC               => (empty)         !
  NUM_FROZEN_UOCC               => (empty)         !
  NUM_GPUS                      => (empty)         !
  OCC_ORBS_PRINT                => (empty)         !
  OEPROP                        => (empty)         !
  OO_SCALE                      => (empty)         !
  OPT_METHOD                    => (empty)         !
  ORB_OPT                       => FALSE           !
  ORB_RESP_SOLVER               => (empty)         !
  ORTH_TYPE                     => (empty)         !
  PCG_BETA_TYPE                 => (empty)         !
  PCG_CONVERGENCE               => (empty)         !
  PCG_MAXITER                   => (empty)         !
  PCM                           => (empty)         !
  PPL_TYPE                      => (empty)         !
  PRINT                         => (empty)         !
  PRINT_NOONS                   => (empty)         !
  PROPERTIES                    => (empty)         !
  PROPERTIES_ORIGIN             => (empty)         !
  PUREAM                        => (empty)         !
  QCHF                          => (empty)         !
  QC_MODULE                     => (empty)         !
  RAS1                          => (empty)         !
  RAS2                          => (empty)         !
  RAS3                          => (empty)         !
  RAS4                          => (empty)         !
  READ_SCF_3INDEX               => (empty)         !
  REGULARIZATION                => (empty)         !
  REG_PARAM                     => (empty)         !
  RELATIVISTIC                  => (empty)         !
  RESTRICTED_DOCC               => (empty)         !
  RESTRICTED_UOCC               => (empty)         !
  RMS_MOGRAD_CONVERGENCE        => (empty)         !
  R_CONVERGENCE                 => (empty)         !
  SCF_TYPE                      => DISK_DF         !
  SCS_TYPE                      => (empty)         !
  SOCC                          => (empty)         !
  SOS_TYPE                      => (empty)         !
  TRIPLES_IABC_TYPE             => (empty)         !
  WFN                           => (empty)         !
  WFN_TYPE                      => DF-CCSD(T)      !
  WRITER_FILE_LABEL             => (empty)         !


 ============================================================================== 
 ============================================================================== 
 ============================================================================== 

                       DF-CCSD   
              Program Written by Ugur Bozkaya
              Latest Revision September 9, 2017

 ============================================================================== 
 ============================================================================== 
 ============================================================================== 

	MO spaces... 

	 FC   OCC   VIR   FV 
	----------------------
	  1    4    53    0

	Number of basis functions in the DF-CC basis: 141
	Reading DF integrals from disk ...
	Number of basis functions in the DF-HF basis: 139

	Available memory                      :   9536.74 MB 
	Memory requirement for 3-index ints   :      3.27 MB 
	Memory requirement for DF-CC int trans:      9.95 MB 
	Memory requirement for CC contractions:      1.37 MB 
	Total memory requirement for DF+CC int:      4.64 MB 
	Memory requirement for Wabef term (T2):     12.60 MB 
	Memory requirement for Wefab term (L2):     12.74 MB 
	Memory for high mem Wabef algorithm   :     28.37 MB 
	I will use the HIGH_MEM Wabef algorithm! 
	Memory requirement for (T) correction :      4.74 MB 

	Computing DF-MP2 energy ... 
	======================================================================= 
	Nuclear Repulsion Energy (a.u.)    :     8.80146556456748
	DF-HF Energy (a.u.)                :   -76.05098620391831
	REF Energy (a.u.)                  :   -76.05098620391831
	DF-MP2 Correlation Energy (a.u.)   :    -0.26454646633308
	DF-MP2 Total Energy (a.u.)         :   -76.31553267025140
	======================================================================= 

 ============================================================================== 
 ================ Performing DF-CCSD iterations... ============================ 
 ============================================================================== 

  Iter       E_corr                  DE                 T2 RMS        T1 RMS     
  ----   ----------------      ----------------       ----------    ----------   
   1      -0.2642544759          0.0002919904         1.21e-04      1.19e-03 
   2      -0.2695292567         -0.0052747808         5.15e-05      1.37e-04 
   3      -0.2703625356         -0.0008332789         1.56e-05      1.15e-04 
   4      -0.2703563118          0.0000062238         3.43e-06      1.91e-05 
   5      -0.2703827997         -0.0000264879         8.25e-07      1.34e-05 
   6      -0.2703830265         -0.0000002268         2.41e-07      4.53e-06 
   7      -0.2703832489         -0.0000002224         5.79e-08      1.57e-06 
   8      -0.2703826942          0.0000005547         2.20e-08      3.64e-07 
   9      -0.2703825373          0.0000001569         6.33e-09      7.24e-08 
  10      -0.2703824937          0.0000000436         1.71e-09      1.16e-08 
  11      -0.2703824809          0.0000000129         4.15e-10      2.74e-09 
  12      -0.2703824786          0.0000000022         1.35e-10      7.49e-10 

 ============================================================================== 
 ===================== DF-CCSD ITERATIONS ARE CONVERGED ======================= 
 ============================================================================== 

	T1 diagnostic reference value:     0.02000000000000
	T1 diagnostic                :     0.00711243635953

	======================================================================= 
	================ CCSD FINAL RESULTS =================================== 
	======================================================================= 
	Nuclear Repulsion Energy (a.u.)    :     8.80146556456748
	SCF Energy (a.u.)                  :   -76.05098620391831
	REF Energy (a.u.)                  :   -76.05098620391831
	DF-CCSD Correlation Energy (a.u.)  :    -0.27038247862482
	DF-CCSD Total Energy (a.u.)        :   -76.32136868254314
	======================================================================= 


*** tstop() called on atl1-1-02-012-5-l.pace.gatech.edu at Tue May 10 16:59:10 2022
Module time:
	user time   =       1.12 seconds =       0.02 minutes
	system time =       0.18 seconds =       0.00 minutes
	total time  =          3 seconds =       0.05 minutes
Total time:
	user time   =       1.71 seconds =       0.03 minutes
	system time =       0.19 seconds =       0.00 minutes
	total time  =          4 seconds =       0.07 minutes

*** tstart() called on atl1-1-02-012-5-l.pace.gatech.edu
*** at Tue May 10 16:59:10 2022


 ============================================================================== 
 ============================================================================== 
 ============================================================================== 

                       DF-CCSD(T)   
              Program Written by Ugur Bozkaya
              Latest Revision April 16, 2017

 ============================================================================== 
 ============================================================================== 
 ============================================================================== 

	Computing (T) correction...
	nthreads: 1 
	Number of ijk combinations: 64 
               10.9         0 s
               20.3         0 s
               31.2         1 s
               40.6         1 s
               50.0         1 s
               60.9         1 s
               70.3         2 s
               81.2         2 s
               90.6         2 s
              100.0         2 s
	(T) Correction (a.u.)              :    -0.00800909667920
	DF-CCSD(T) Total Energy (a.u.)     :   -76.32937777922234

*** tstop() called on atl1-1-02-012-5-l.pace.gatech.edu at Tue May 10 16:59:12 2022
Module time:
	user time   =       2.17 seconds =       0.04 minutes
	system time =       0.04 seconds =       0.00 minutes
	total time  =          2 seconds =       0.03 minutes
Total time:
	user time   =       3.88 seconds =       0.06 minutes
	system time =       0.23 seconds =       0.00 minutes
	total time  =          6 seconds =       0.10 minutes

*** tstart() called on atl1-1-02-012-5-l.pace.gatech.edu
*** at Tue May 10 16:59:12 2022


 ============================================================================== 
 ================ Performing DF-CCSDL iterations... =========================== 
 ============================================================================== 

  Iter       E_corr                  DE                 L2 RMS        L1 RMS     
  ----   ----------------      ----------------       ----------    ----------   
   1      -0.2818916062         -0.0115091276         8.02e-05      4.88e-04 
   2      -0.2803335678          0.0015580384         1.28e-05      1.62e-04 
   3      -0.2803717739         -0.0000382061         3.28e-06      2.75e-05 
   4      -0.2804085704         -0.0000367964         8.05e-07      1.89e-05 
   5      -0.2804055551          0.0000030153         3.13e-07      5.73e-06 
   6      -0.2804055241          0.0000000310         7.74e-08      1.93e-06 
   7      -0.2804050533          0.0000004708         2.17e-08      3.85e-07 
   8      -0.2804049863          0.0000000671         4.60e-09      9.48e-08 
   9      -0.2804050357         -0.0000000495         1.44e-09      1.72e-08 
  10      -0.2804050318          0.0000000040         3.05e-10      3.74e-09 

 ============================================================================== 
 ===================== DF-CCSDL ITERATIONS ARE CONVERGED ====================== 
 ============================================================================== 

	Computing 3-index intermediates...

*** tstop() called on atl1-1-02-012-5-l.pace.gatech.edu at Tue May 10 16:59:16 2022
Module time:
	user time   =       0.89 seconds =       0.01 minutes
	system time =       0.23 seconds =       0.00 minutes
	total time  =          4 seconds =       0.07 minutes
Total time:
	user time   =       4.77 seconds =       0.08 minutes
	system time =       0.46 seconds =       0.01 minutes
	total time  =         10 seconds =       0.17 minutes

*** tstart() called on atl1-1-02-012-5-l.pace.gatech.edu
*** at Tue May 10 16:59:16 2022


 ============================================================================== 
 ============================================================================== 
 ============================================================================== 

                         DFPDM   
              Particle Density Matrix Code   
               for Density-Fitted Methods       
                   by Ugur Bozkaya
              Latest Revision December 19, 2016

 ============================================================================== 
 ============================================================================== 
 ============================================================================== 

	Computing unrelaxed response density matrices...

	Forming independent-pairs...
	Number of independent-pairs: 265
	Computing the generalized Fock matrix (GFM)...
	Computing the orbital gradient...
	Forming strictly canonical effective orbital gradient...
	Solving orbital Z-vector equations...

	            PCG Solver 
	   ------------------------------ 
	Iter     RMS Z Vector        RMS Residual  
	----    ---------------    ---------------
	  1         2.11e-04         3.40e-04
	  2         1.03e-04         8.03e-05
	  3         2.60e-05         1.51e-05
	  4         3.90e-06         3.42e-06
	  5         8.67e-07         6.92e-07

	Computing the relaxed PDMs and GFM...

*** tstop() called on atl1-1-02-012-5-l.pace.gatech.edu at Tue May 10 16:59:17 2022
Module time:
	user time   =       0.21 seconds =       0.00 minutes
	system time =       0.04 seconds =       0.00 minutes
	total time  =          1 seconds =       0.02 minutes
Total time:
	user time   =       4.98 seconds =       0.08 minutes
	system time =       0.50 seconds =       0.01 minutes
	total time  =         11 seconds =       0.18 minutes

*** tstart() called on atl1-1-02-012-5-l.pace.gatech.edu
*** at Tue May 10 16:59:17 2022


 ============================================================================== 
 ============================================================================== 
 ============================================================================== 

                         DFGRAD   
            A General Analytic Gradients Code   
               for Density-Fitted Methods       
                   by Ugur Bozkaya
              Latest Revision December 19, 2016

 ============================================================================== 
 ============================================================================== 
 ============================================================================== 

	Analytic gradients computation is starting...
	Forming Gamma^tilde...
	Backtransforming OPDM, TPDM, and GFM to the AO basis...
	Computing analytic gradients...

  -Nuclear Gradient:
     Atom            X                  Y                   Z
    ------   -----------------  -----------------  -----------------
       1        0.000000000000    -1.883302417404     1.371506392204
       2        0.000000000000    -0.000000000000    -2.743012784409
       3        0.000000000000     1.883302417404     1.371506392204


  -Core Hamiltonian Gradient:
     Atom            X                  Y                   Z
    ------   -----------------  -----------------  -----------------
       1       -0.000000000000     4.290724698247    -3.269020292179
       2        0.000000000000    -0.000000000019     6.538040584361
       3       -0.000000000000    -4.290724698228    -3.269020292182


  -Overlap Gradient:
     Atom            X                  Y                   Z
    ------   -----------------  -----------------  -----------------
       1       -0.000000000000    -0.223944992500     0.191775339697
       2       -0.000000000000     0.000001027477    -0.383551913961
       3        0.000000000000     0.223943965024     0.191776574264


  -One-Electron Gradient:
     Atom            X                  Y                   Z
    ------   -----------------  -----------------  -----------------
       1       -0.000000000000     4.290724698247    -3.269020292179
       2        0.000000000000    -0.000000000019     6.538040584361
       3       -0.000000000000    -4.290724698228    -3.269020292182


  -Two-Electron Gradient:
     Atom            X                  Y                   Z
    ------   -----------------  -----------------  -----------------
       1        0.000000000000    -2.152360907738     1.686598947201
       2       -0.000000000000     0.000000000015    -3.373197894404
       3        0.000000000000     2.152360907724     1.686598947203


  -Total Gradient:
     Atom            X                  Y                   Z
    ------   -----------------  -----------------  -----------------
       1       -0.000000000000     0.031116380605    -0.019139613077
       2        0.000000000000     0.000001027473     0.038277991588
       3       -0.000000000000    -0.031117408077    -0.019138378511


*** tstop() called on atl1-1-02-012-5-l.pace.gatech.edu at Tue May 10 16:59:17 2022
Module time:
	user time   =       0.32 seconds =       0.01 minutes
	system time =       0.03 seconds =       0.00 minutes
	total time  =          0 seconds =       0.00 minutes
Total time:
	user time   =       5.30 seconds =       0.09 minutes
	system time =       0.53 seconds =       0.01 minutes
	total time  =         11 seconds =       0.18 minutes

			-----------------------------------------
			 OPTKING 2.0: for geometry optimizations 
			  - R.A. King,  Bethel University        
			-----------------------------------------

	Internal coordinates to be generated automatically.
	Detected frag 1 with atoms:  1 2 3
	---Fragment 1 Bond Connectivity---
	 1 : 2
	 2 : 1 3
	 3 : 2

	---Fragment 1 Geometry and Gradient---
	 H           0.0000000000        1.4941867446       -1.0274460989
	 O           0.0000000000        0.0000000000        0.1294768897
	 H           0.0000000000       -1.4941867446       -1.0274460989
	            -0.0000000000        0.0311163806       -0.0191396131
	             0.0000000000        0.0000010275        0.0382779916
	            -0.0000000000       -0.0311174081       -0.0191383785

	Previous optimization step data not found.  Starting new optimization.

	---Fragment 1 Intrafragment Coordinates---
	 - Coordinate -           - BOHR/RAD -       - ANG/DEG -
	 R(1,2)           =         1.889726	       1.000000
	 R(2,3)           =         1.889726	       1.000000
	 B(1,2,3)         =         1.823869	     104.500000

	Current energy   :       -76.3293777792

	Generating empirical Hessian (Schlegel '84) for each fragment.
	Taking RFO optimization step.
	Going to follow RFO solution 1.
	Using RFO vector 1.
	Norm of target step-size    0.11540
	Projected energy change by RFO approximation:        -0.0044510906

	Back-transformation to cartesian coordinates...
	Successfully converged to displaced geometry.

	--- Internal Coordinate Step in ANG or DEG, aJ/ANG or AJ/DEG ---
	 ---------------------------------------------------------------------------
	   Coordinate                Previous        Force       Change         New 
	   ----------                --------       ------       ------       ------
	    1 R(1,2)          =      1.000000    -0.299236    -0.039819     0.960181
	    2 R(2,3)          =      1.000000    -0.299242    -0.039820     0.960180
	    3 B(1,2,3)        =    104.500000    -0.000563    -2.558185   101.941815
	 ---------------------------------------------------------------------------
	Successfully symmetrized geometry.

  ==> Convergence Check <==

  Measures of convergence in internal coordinates in au.
  Criteria marked as inactive (o), active & met (*), and active & unmet ( ).
  --------------------------------------------------------------------------------------------- ~
   Step     Total Energy     Delta E     MAX Force     RMS Force      MAX Disp      RMS Disp    ~
  --------------------------------------------------------------------------------------------- ~
    Convergence Criteria    1.00e-06 *    3.00e-04 *             o    1.20e-03 *             o  ~
  --------------------------------------------------------------------------------------------- ~
      1     -76.32937778   -7.63e+01      3.63e-02      3.00e-02 o    7.52e-02      6.66e-02 o  ~
  ---------------------------------------------------------------------------------------------

	Writing optimization data to binary file.
	Structure for next step:
	Cartesian Geometry (in Angstrom)
	    H     0.0000000000   0.7458931864  -0.5411752122
	    O     0.0000000000   0.0000000000   0.0634645264
	    H     0.0000000000  -0.7458931864  -0.5411752122
			--------------------------
			 OPTKING Finished Execution 
			--------------------------

    Structure for next step:
    Molecular point group: c2v
    Full point group: C2v

    Geometry (in Angstrom), charge = 0, multiplicity = 1:

    H       
    O             1          OH
    H             2          OH      1         HOH

    HOH       =  101.9418152053
    OH        =    0.9601801218

gradient() will perform analytic gradient computation.
    Method 'CCSD(T)' requires SCF_TYPE = DISK_DF, setting.

*** tstart() called on atl1-1-02-012-5-l.pace.gatech.edu
*** at Tue May 10 16:59:17 2022

   => Loading Basis Set <=

    Name: CC-PVTZ
    Role: ORBITAL
    Keyword: BASIS
    atoms 1, 3 entry H          line    23 file /usr/local/pace-apps/manual/packages/psi4/1.3.2/intel-19.0.5/share/psi4/basis/cc-pvtz.gbs 
    atoms 2    entry O          line   262 file /usr/local/pace-apps/manual/packages/psi4/1.3.2/intel-19.0.5/share/psi4/basis/cc-pvtz.gbs 


         ---------------------------------------------------------
                                   SCF
               by Justin Turney, Rob Parrish, Andy Simmonett
                          and Daniel G. A. Smith
                              RHF Reference
                        1 Threads,   9536 MiB Core
         ---------------------------------------------------------

  ==> Geometry <==

    Molecular point group: c2v
    Full point group: C2v

    Geometry (in Angstrom), charge = 0, multiplicity = 1:

       Center              X                  Y                   Z               Mass       
    ------------   -----------------  -----------------  -----------------  -----------------
         H            0.000000000000     0.745893189359    -0.536971560987     1.007825032230
         O            0.000000000000     0.000000000000     0.067668179997    15.994914619570
         H            0.000000000000    -0.745893189359    -0.536971560987     1.007825032230

  Running in c2v symmetry.

  Rotational constants: A =     25.75926  B =     15.03239  C =      9.49271 [cm^-1]
  Rotational constants: A = 772243.19283  B = 450659.75803  C = 284584.25926 [MHz]
  Nuclear repulsion =    9.172692894156850

  Charge       = 0
  Multiplicity = 1
  Electrons    = 10
  Nalpha       = 5
  Nbeta        = 5

  ==> Algorithm <==

  SCF Algorithm Type is DISK_DF.
  DIIS enabled.
  MOM disabled.
  Fractional occupation disabled.
  Guess Type is READ.
  Energy threshold   = 1.00e-10
  Density threshold  = 1.00e-10
  Integral threshold = 0.00e+00

  ==> Primary Basis <==

  Basis Set: CC-PVTZ
    Blend: CC-PVTZ
    Number of shells: 22
    Number of basis function: 58
    Number of Cartesian functions: 65
    Spherical Harmonics?: true
    Max angular momentum: 3

   => Loading Basis Set <=

    Name: (CC-PVTZ AUX)
    Role: JKFIT
    Keyword: DF_BASIS_SCF
    atoms 1, 3 entry H          line    51 file /usr/local/pace-apps/manual/packages/psi4/1.3.2/intel-19.0.5/share/psi4/basis/cc-pvtz-jkfit.gbs 
    atoms 2    entry O          line   229 file /usr/local/pace-apps/manual/packages/psi4/1.3.2/intel-19.0.5/share/psi4/basis/cc-pvtz-jkfit.gbs 

   => Loading Basis Set <=

    Name: CC-PVTZ
    Role: ORBITAL
    Keyword: BASIS
    atoms 1, 3 entry H          line    23 file /usr/local/pace-apps/manual/packages/psi4/1.3.2/intel-19.0.5/share/psi4/basis/cc-pvtz.gbs 
    atoms 2    entry O          line   262 file /usr/local/pace-apps/manual/packages/psi4/1.3.2/intel-19.0.5/share/psi4/basis/cc-pvtz.gbs 

  Reading orbitals from file 180, no projection.

  ==> Pre-Iterations <==

   -------------------------------------------------------
    Irrep   Nso     Nmo     Nalpha   Nbeta   Ndocc  Nsocc
   -------------------------------------------------------
     A1        23      23       0       0       0       0
     A2         7       7       0       0       0       0
     B1        11      11       0       0       0       0
     B2        17      17       0       0       0       0
   -------------------------------------------------------
    Total      58      58       5       5       5       0
   -------------------------------------------------------

  ==> Integral Setup <==

  ==> DiskDFJK: Density-Fitted J/K Matrices <==

    J tasked:                  Yes
    K tasked:                  Yes
    wK tasked:                  No
    OpenMP threads:              1
    Integrals threads:           1
    Memory [MiB]:             7152
    Algorithm:                Core
    Integral Cache:           SAVE
    Schwarz Cutoff:          1E-12
    Fitting Condition:       1E-10

   => Auxiliary Basis Set <=

  Basis Set: (CC-PVTZ AUX)
    Blend: CC-PVTZ-JKFIT
    Number of shells: 45
    Number of basis function: 139
    Number of Cartesian functions: 166
    Spherical Harmonics?: true
    Max angular momentum: 4

  Minimum eigenvalue in the overlap matrix is 2.5441566357E-03.
  Using Symmetric Orthogonalization.

  SCF Guess: Orbitals guess was supplied from a previous computation.

  ==> Iterations <==

                           Total Energy        Delta E     RMS |[F,P]|

   @DF-RHF iter   0:   -76.10392358957482   -7.61039e+01   3.31343e-03 
   @DF-RHF iter   1:   -76.05653072335451    4.73929e-02   5.07674e-04 DIIS
   @DF-RHF iter   2:   -76.05663942391514   -1.08701e-04   2.52157e-04 DIIS
   @DF-RHF iter   3:   -76.05665749973620   -1.80758e-05   4.95392e-05 DIIS
   @DF-RHF iter   4:   -76.05665921329044   -1.71355e-06   1.59352e-05 DIIS
   @DF-RHF iter   5:   -76.05665946101681   -2.47726e-07   3.40640e-06 DIIS
   @DF-RHF iter   6:   -76.05665947653868   -1.55219e-08   6.54037e-07 DIIS
   @DF-RHF iter   7:   -76.05665947701399   -4.75310e-10   8.59852e-08 DIIS
   @DF-RHF iter   8:   -76.05665947702218   -8.18545e-12   1.77564e-08 DIIS
   @DF-RHF iter   9:   -76.05665947702249   -3.12639e-13   2.20086e-09 DIIS
   @DF-RHF iter  10:   -76.05665947702255   -5.68434e-14   2.77811e-10 DIIS
   @DF-RHF iter  11:   -76.05665947702255    0.00000e+00   3.37451e-11 DIIS
  Energy and wave function converged.


  ==> Post-Iterations <==

    Orbital Energies [Eh]
    ---------------------

    Doubly Occupied:                                                      

       1A1   -20.556520     2A1    -1.346120     1B2    -0.703205  
       3A1    -0.582288     1B1    -0.505087  

    Virtual:                                                              

       4A1     0.141537     2B2     0.204342     3B2     0.538829  
       5A1     0.609746     6A1     0.667311     2B1     0.787016  
       7A1     0.788174     4B2     0.806927     1A2     0.866152  
       3B1     0.944337     8A1     1.137153     5B2     1.202996  
       6B2     1.518378     9A1     1.567541     4B1     2.047740  
       7B2     2.055409     2A2     2.059674    10A1     2.174133  
      11A1     2.232059    12A1     2.578808     8B2     2.969032  
       5B1     3.331849    13A1     3.477187     3A2     3.602398  
       9B2     3.668196     6B1     3.794991    10B2     3.877493  
      14A1     3.892127     4A2     3.968853     7B1     4.013680  
      11B2     4.068151    15A1     4.192578     5A2     4.298748  
      16A1     4.356300    12B2     4.617608     8B1     4.680445  
      13B2     4.865409    17A1     5.165185    18A1     5.250823  
      14B2     5.521147     9B1     6.060792    19A1     6.594987  
      10B1     6.911050     6A2     6.940018    15B2     7.002677  
      11B1     7.015138    20A1     7.023625    21A1     7.200655  
       7A2     7.241977    22A1     7.446259    16B2     7.802276  
      17B2     8.300300    23A1    12.817397  

    Final Occupation by Irrep:
             A1    A2    B1    B2 
    DOCC [     3,    0,    1,    1 ]

  @DF-RHF Final Energy:   -76.05665947702255

   => Energetics <=

    Nuclear Repulsion Energy =              9.1726928941568495
    One-Electron Energy =                -123.0722632419835634
    Two-Electron Energy =                  37.8429108708041539
    Total Energy =                        -76.0566594770225493

Computation Completed


Properties will be evaluated at   0.000000,   0.000000,   0.000000 [a0]

Properties computed using the SCF density matrix

  Nuclear Dipole Moment: [e a0]
     X:     0.0000      Y:     0.0000      Z:    -1.0065

  Electronic Dipole Moment: [e a0]
     X:     0.0000      Y:     0.0000      Z:     0.1929

  Dipole Moment: [e a0]
     X:     0.0000      Y:     0.0000      Z:    -0.8136     Total:     0.8136

  Dipole Moment: [D]
     X:     0.0000      Y:     0.0000      Z:    -2.0679     Total:     2.0679


*** tstop() called on atl1-1-02-012-5-l.pace.gatech.edu at Tue May 10 16:59:18 2022
Module time:
	user time   =       0.26 seconds =       0.00 minutes
	system time =       0.00 seconds =       0.00 minutes
	total time  =          1 seconds =       0.02 minutes
Total time:
	user time   =       5.57 seconds =       0.09 minutes
	system time =       0.53 seconds =       0.01 minutes
	total time  =         12 seconds =       0.20 minutes

  A requested method does not make use of molecular symmetry: further calculations in C1 point group.

  Constructing Basis Sets for DFOCC...

   => Loading Basis Set <=

    Name: (CC-PVTZ AUX)
    Role: JKFIT
    Keyword: DF_BASIS_SCF
    atoms 1, 3 entry H          line    51 file /usr/local/pace-apps/manual/packages/psi4/1.3.2/intel-19.0.5/share/psi4/basis/cc-pvtz-jkfit.gbs 
    atoms 2    entry O          line   229 file /usr/local/pace-apps/manual/packages/psi4/1.3.2/intel-19.0.5/share/psi4/basis/cc-pvtz-jkfit.gbs 

   => Loading Basis Set <=

    Name: (CC-PVTZ AUX)
    Role: RIFIT
    Keyword: DF_BASIS_CC
    atoms 1, 3 entry H          line    19 file /usr/local/pace-apps/manual/packages/psi4/1.3.2/intel-19.0.5/share/psi4/basis/cc-pvtz-ri.gbs 
    atoms 2    entry O          line   305 file /usr/local/pace-apps/manual/packages/psi4/1.3.2/intel-19.0.5/share/psi4/basis/cc-pvtz-ri.gbs 


*** tstart() called on atl1-1-02-012-5-l.pace.gatech.edu
*** at Tue May 10 16:59:18 2022



  Module DFOCC Options:
  ----------------------------------------------------------------------------
  ACTIVE                        => (empty)         !
  BASIS_RELATIVISTIC            => (empty)         !
  BENCH                         => (empty)         !
  CC_DIIS_MAX_VECS              => (empty)         !
  CC_DIIS_MIN_VECS              => (empty)         !
  CC_LAMBDA                     => TRUE            !
  CC_MAXITER                    => (empty)         !
  CC_TYPE                       => DF              !
  CHOLESKY                      => (empty)         !
  CHOLESKY_TOLERANCE            => (empty)         !
  CI_TYPE                       => (empty)         !
  COMPUT_S2                     => (empty)         !
  CUBEPROP_BASIS_FUNCTIONS      => (empty)         !
  CUBEPROP_FILEPATH             => (empty)         !
  CUBEPROP_ISOCONTOUR_THRESHOLD => (empty)         !
  CUBEPROP_ORBITALS             => (empty)         !
  CUBEPROP_TASKS                => (empty)         !
  CUBIC_BASIS_TOLERANCE         => (empty)         !
  CUBIC_BLOCK_MAX_POINTS        => (empty)         !
  CUBIC_GRID_OVERAGE            => (empty)         !
  CUBIC_GRID_SPACING            => (empty)         !
  CUTOFF                        => (empty)         !
  DEBUG                         => (empty)         !
  DERTYPE                       => FIRST           !
  DF_BASIS_CC                   => (empty)         !
  DIE_IF_NOT_CONVERGED          => (empty)         !
  DKH_ORDER                     => (empty)         !
  DOCC                          => (empty)         !
  DO_DIIS                       => (empty)         !
  DO_LEVEL_SHIFT                => (empty)         !
  DO_SCS                        => FALSE           !
  DO_SOS                        => FALSE           !
  E3_SCALE                      => (empty)         !
  EKT_IP                        => (empty)         !
  EXTERNAL_POTENTIAL_SYMMETRY   => (empty)         !
  E_CONVERGENCE                 => 1e-08           !
  FREEZE_CORE                   => TRUE            !
  FROZEN_DOCC                   => (empty)         !
  FROZEN_UOCC                   => (empty)         !
  HESS_TYPE                     => (empty)         !
  INTEGRAL_CUTOFF               => (empty)         !
  INTEGRAL_PACKAGE              => (empty)         !
  LEVEL_SHIFT                   => (empty)         !
  LINEQ_SOLVER                  => (empty)         !
  LITERAL_CFOUR                 => (empty)         !
  MAT_NUM_COLUMN_PRINT          => (empty)         !
  MAX_MOGRAD_CONVERGENCE        => (empty)         !
  MOLDEN_WITH_VIRTUAL           => (empty)         !
  MOLDEN_WRITE                  => (empty)         !
  MO_DIIS_NUM_VECS              => (empty)         !
  MO_MAXITER                    => (empty)         !
  MO_STEP_MAX                   => (empty)         !
  MP2_AMP_TYPE                  => (empty)         !
  MP2_OS_SCALE                  => (empty)         !
  MP2_SOS_SCALE                 => (empty)         !
  MP2_SOS_SCALE2                => (empty)         !
  MP2_SS_SCALE                  => (empty)         !
  MP2_TYPE                      => DF              !
  MP_TYPE                       => (empty)         !
  NAT_ORBS                      => (empty)         !
  NUM_FROZEN_DOCC               => (empty)         !
  NUM_FROZEN_UOCC               => (empty)         !
  NUM_GPUS                      => (empty)         !
  OCC_ORBS_PRINT                => (empty)         !
  OEPROP                        => (empty)         !
  OO_SCALE                      => (empty)         !
  OPT_METHOD                    => (empty)         !
  ORB_OPT                       => FALSE           !
  ORB_RESP_SOLVER               => (empty)         !
  ORTH_TYPE                     => (empty)         !
  PCG_BETA_TYPE                 => (empty)         !
  PCG_CONVERGENCE               => (empty)         !
  PCG_MAXITER                   => (empty)         !
  PCM                           => (empty)         !
  PPL_TYPE                      => (empty)         !
  PRINT                         => (empty)         !
  PRINT_NOONS                   => (empty)         !
  PROPERTIES                    => (empty)         !
  PROPERTIES_ORIGIN             => (empty)         !
  PUREAM                        => (empty)         !
  QCHF                          => (empty)         !
  QC_MODULE                     => (empty)         !
  RAS1                          => (empty)         !
  RAS2                          => (empty)         !
  RAS3                          => (empty)         !
  RAS4                          => (empty)         !
  READ_SCF_3INDEX               => (empty)         !
  REGULARIZATION                => (empty)         !
  REG_PARAM                     => (empty)         !
  RELATIVISTIC                  => (empty)         !
  RESTRICTED_DOCC               => (empty)         !
  RESTRICTED_UOCC               => (empty)         !
  RMS_MOGRAD_CONVERGENCE        => (empty)         !
  R_CONVERGENCE                 => (empty)         !
  SCF_TYPE                      => DISK_DF         !
  SCS_TYPE                      => (empty)         !
  SOCC                          => (empty)         !
  SOS_TYPE                      => (empty)         !
  TRIPLES_IABC_TYPE             => (empty)         !
  WFN                           => (empty)         !
  WFN_TYPE                      => DF-CCSD(T)      !
  WRITER_FILE_LABEL             => (empty)         !


 ============================================================================== 
 ============================================================================== 
 ============================================================================== 

                       DF-CCSD   
              Program Written by Ugur Bozkaya
              Latest Revision September 9, 2017

 ============================================================================== 
 ============================================================================== 
 ============================================================================== 

	MO spaces... 

	 FC   OCC   VIR   FV 
	----------------------
	  1    4    53    0

	Number of basis functions in the DF-CC basis: 141
	Reading DF integrals from disk ...
	Number of basis functions in the DF-HF basis: 139

	Available memory                      :   9536.74 MB 
	Memory requirement for 3-index ints   :      3.27 MB 
	Memory requirement for DF-CC int trans:      9.95 MB 
	Memory requirement for CC contractions:      1.37 MB 
	Total memory requirement for DF+CC int:      4.64 MB 
	Memory requirement for Wabef term (T2):     12.60 MB 
	Memory requirement for Wefab term (L2):     12.74 MB 
	Memory for high mem Wabef algorithm   :     28.37 MB 
	I will use the HIGH_MEM Wabef algorithm! 
	Memory requirement for (T) correction :      4.74 MB 

	Computing DF-MP2 energy ... 
	======================================================================= 
	Nuclear Repulsion Energy (a.u.)    :     9.17269289415695
	DF-HF Energy (a.u.)                :   -76.05665947702255
	REF Energy (a.u.)                  :   -76.05665947702255
	DF-MP2 Correlation Energy (a.u.)   :    -0.26187491361426
	DF-MP2 Total Energy (a.u.)         :   -76.31853439063681
	======================================================================= 

 ============================================================================== 
 ================ Performing DF-CCSD iterations... ============================ 
 ============================================================================== 

  Iter       E_corr                  DE                 T2 RMS        T1 RMS     
  ----   ----------------      ----------------       ----------    ----------   
   1      -0.2623180098         -0.0004430962         1.15e-04      1.12e-03 
   2      -0.2672025085         -0.0048844988         4.68e-05      1.23e-04 
   3      -0.2679172261         -0.0007147176         1.37e-05      9.97e-05 
   4      -0.2679087373          0.0000084887         2.95e-06      1.44e-05 
   5      -0.2679307477         -0.0000220103         6.92e-07      9.96e-06 
   6      -0.2679313377         -0.0000005901         1.83e-07      3.26e-06 
   7      -0.2679316311         -0.0000002934         4.23e-08      1.20e-06 
   8      -0.2679312232          0.0000004080         1.63e-08      2.92e-07 
   9      -0.2679311083          0.0000001148         4.51e-09      5.58e-08 
  10      -0.2679310741          0.0000000342         1.19e-09      8.46e-09 
  11      -0.2679310656          0.0000000085         2.77e-10      1.97e-09 

 ============================================================================== 
 ===================== DF-CCSD ITERATIONS ARE CONVERGED ======================= 
 ============================================================================== 

	T1 diagnostic reference value:     0.02000000000000
	T1 diagnostic                :     0.00660728475345

	======================================================================= 
	================ CCSD FINAL RESULTS =================================== 
	======================================================================= 
	Nuclear Repulsion Energy (a.u.)    :     9.17269289415695
	SCF Energy (a.u.)                  :   -76.05665947702255
	REF Energy (a.u.)                  :   -76.05665947702255
	DF-CCSD Correlation Energy (a.u.)  :    -0.26793106558816
	DF-CCSD Total Energy (a.u.)        :   -76.32459054261071
	======================================================================= 


*** tstop() called on atl1-1-02-012-5-l.pace.gatech.edu at Tue May 10 16:59:20 2022
Module time:
	user time   =       1.08 seconds =       0.02 minutes
	system time =       0.20 seconds =       0.00 minutes
	total time  =          2 seconds =       0.03 minutes
Total time:
	user time   =       6.78 seconds =       0.11 minutes
	system time =       0.73 seconds =       0.01 minutes
	total time  =         14 seconds =       0.23 minutes

*** tstart() called on atl1-1-02-012-5-l.pace.gatech.edu
*** at Tue May 10 16:59:20 2022


 ============================================================================== 
 ============================================================================== 
 ============================================================================== 

                       DF-CCSD(T)   
              Program Written by Ugur Bozkaya
              Latest Revision April 16, 2017

 ============================================================================== 
 ============================================================================== 
 ============================================================================== 

	Computing (T) correction...
	nthreads: 1 
	Number of ijk combinations: 64 
               10.9         1 s
               20.3         1 s
               31.2         1 s
               40.6         1 s
               50.0         1 s
               60.9         2 s
               70.3         2 s
               81.2         2 s
               90.6         2 s
              100.0         3 s
	(T) Correction (a.u.)              :    -0.00769841797260
	DF-CCSD(T) Total Energy (a.u.)     :   -76.33228896058330

*** tstop() called on atl1-1-02-012-5-l.pace.gatech.edu at Tue May 10 16:59:23 2022
Module time:
	user time   =       2.11 seconds =       0.04 minutes
	system time =       0.04 seconds =       0.00 minutes
	total time  =          3 seconds =       0.05 minutes
Total time:
	user time   =       8.89 seconds =       0.15 minutes
	system time =       0.77 seconds =       0.01 minutes
	total time  =         17 seconds =       0.28 minutes

*** tstart() called on atl1-1-02-012-5-l.pace.gatech.edu
*** at Tue May 10 16:59:23 2022


 ============================================================================== 
 ================ Performing DF-CCSDL iterations... =========================== 
 ============================================================================== 

  Iter       E_corr                  DE                 L2 RMS        L1 RMS     
  ----   ----------------      ----------------       ----------    ----------   
   1      -0.2790429707         -0.0111119052         7.62e-05      4.67e-04 
   2      -0.2776252367          0.0014177340         1.18e-05      1.50e-04 
   3      -0.2776530827         -0.0000278460         2.80e-06      2.24e-05 
   4      -0.2776824806         -0.0000293979         6.61e-07      1.58e-05 
   5      -0.2776800919          0.0000023888         2.59e-07      4.83e-06 
   6      -0.2776800254          0.0000000665         6.27e-08      1.54e-06 
   7      -0.2776797167          0.0000003087         1.76e-08      2.94e-07 
   8      -0.2776796439          0.0000000728         3.50e-09      7.60e-08 
   9      -0.2776796847         -0.0000000408         1.13e-09      1.33e-08 
  10      -0.2776796808          0.0000000040         2.26e-10      3.20e-09 

 ============================================================================== 
 ===================== DF-CCSDL ITERATIONS ARE CONVERGED ====================== 
 ============================================================================== 

	Computing 3-index intermediates...

*** tstop() called on atl1-1-02-012-5-l.pace.gatech.edu at Tue May 10 16:59:26 2022
Module time:
	user time   =       0.92 seconds =       0.02 minutes
	system time =       0.26 seconds =       0.00 minutes
	total time  =          3 seconds =       0.05 minutes
Total time:
	user time   =       9.81 seconds =       0.16 minutes
	system time =       1.03 seconds =       0.02 minutes
	total time  =         20 seconds =       0.33 minutes

*** tstart() called on atl1-1-02-012-5-l.pace.gatech.edu
*** at Tue May 10 16:59:26 2022


 ============================================================================== 
 ============================================================================== 
 ============================================================================== 

                         DFPDM   
              Particle Density Matrix Code   
               for Density-Fitted Methods       
                   by Ugur Bozkaya
              Latest Revision December 19, 2016

 ============================================================================== 
 ============================================================================== 
 ============================================================================== 

	Computing unrelaxed response density matrices...

	Forming independent-pairs...
	Number of independent-pairs: 265
	Computing the generalized Fock matrix (GFM)...
	Computing the orbital gradient...
	Forming strictly canonical effective orbital gradient...
	Solving orbital Z-vector equations...

	            PCG Solver 
	   ------------------------------ 
	Iter     RMS Z Vector        RMS Residual  
	----    ---------------    ---------------
	  1         1.91e-04         3.09e-04
	  2         8.76e-05         7.06e-05
	  3         2.17e-05         1.28e-05
	  4         3.19e-06         2.78e-06
	  5         5.92e-07         4.27e-07

	Computing the relaxed PDMs and GFM...

*** tstop() called on atl1-1-02-012-5-l.pace.gatech.edu at Tue May 10 16:59:27 2022
Module time:
	user time   =       0.20 seconds =       0.00 minutes
	system time =       0.04 seconds =       0.00 minutes
	total time  =          1 seconds =       0.02 minutes
Total time:
	user time   =      10.01 seconds =       0.17 minutes
	system time =       1.07 seconds =       0.02 minutes
	total time  =         21 seconds =       0.35 minutes

*** tstart() called on atl1-1-02-012-5-l.pace.gatech.edu
*** at Tue May 10 16:59:27 2022


 ============================================================================== 
 ============================================================================== 
 ============================================================================== 

                         DFGRAD   
            A General Analytic Gradients Code   
               for Density-Fitted Methods       
                   by Ugur Bozkaya
              Latest Revision December 19, 2016

 ============================================================================== 
 ============================================================================== 
 ============================================================================== 

	Analytic gradients computation is starting...
	Forming Gamma^tilde...
	Backtransforming OPDM, TPDM, and GFM to the AO basis...
	Computing analytic gradients...

  -Nuclear Gradient:
     Atom            X                  Y                   Z
    ------   -----------------  -----------------  -----------------
       1        0.000000000000    -2.013434837486     1.530138733563
       2        0.000000000000    -0.000000000000    -3.060277467125
       3        0.000000000000     2.013434837486     1.530138733563


  -Core Hamiltonian Gradient:
     Atom            X                  Y                   Z
    ------   -----------------  -----------------  -----------------
       1       -0.000000000000     4.346483468287    -3.584136826192
       2        0.000000000000     0.000000000024     7.168273652371
       3       -0.000000000000    -4.346483468311    -3.584136826179


  -Overlap Gradient:
     Atom            X                  Y                   Z
    ------   -----------------  -----------------  -----------------
       1        0.000000000000    -0.214046054174     0.206139135461
       2       -0.000000000000     0.000000420369    -0.412279294964
       3        0.000000000000     0.214045633806     0.206140159503


  -One-Electron Gradient:
     Atom            X                  Y                   Z
    ------   -----------------  -----------------  -----------------
       1       -0.000000000000     4.346483468287    -3.584136826192
       2        0.000000000000     0.000000000024     7.168273652371
       3       -0.000000000000    -4.346483468311    -3.584136826179


  -Two-Electron Gradient:
     Atom            X                  Y                   Z
    ------   -----------------  -----------------  -----------------
       1        0.000000000000    -2.120811285706     1.845976783983
       2       -0.000000000000    -0.000000000021    -3.691953567954
       3        0.000000000000     2.120811285727     1.845976783971


  -Total Gradient:
     Atom            X                  Y                   Z
    ------   -----------------  -----------------  -----------------
       1       -0.000000000000    -0.001808709079    -0.001882173186
       2        0.000000000000     0.000000420372     0.003763322328
       3        0.000000000000     0.001808288707    -0.001881149143


*** tstop() called on atl1-1-02-012-5-l.pace.gatech.edu at Tue May 10 16:59:27 2022
Module time:
	user time   =       0.32 seconds =       0.01 minutes
	system time =       0.03 seconds =       0.00 minutes
	total time  =          0 seconds =       0.00 minutes
Total time:
	user time   =      10.33 seconds =       0.17 minutes
	system time =       1.10 seconds =       0.02 minutes
	total time  =         21 seconds =       0.35 minutes

			-----------------------------------------
			 OPTKING 2.0: for geometry optimizations 
			  - R.A. King,  Bethel University        
			-----------------------------------------

	Previous internal coordinate definitions found.
	---Fragment 1 Geometry and Gradient---
	 H           0.0000000000        1.4095338467       -1.0147291874
	 O           0.0000000000        0.0000000000        0.1278743276
	 H           0.0000000000       -1.4095338467       -1.0147291874
	            -0.0000000000       -0.0018087091       -0.0018821732
	             0.0000000000        0.0000004204        0.0037633223
	             0.0000000000        0.0018082887       -0.0018811491

	---Fragment 1 Intrafragment Coordinates---
	 - Coordinate -           - BOHR/RAD -       - ANG/DEG -
	 R(1,2)           =         1.814477	       0.960180
	 R(2,3)           =         1.814477	       0.960180
	 B(1,2,3)         =         1.779220	     101.941815

	Current energy   :       -76.3322889606

	Energy change for the previous step:
		Projected    :        -0.0044510906
		Actual       :        -0.0029111814

	Performing BFGS update.
	Previous computed or guess Hessian on step 1.
	Steps to be used in Hessian update: 1
	Taking RFO optimization step.
	Going to follow RFO solution 1.
	Using RFO vector 1.
	Norm of target step-size    0.02732
	Projected energy change by RFO approximation:        -0.0001453776

	Back-transformation to cartesian coordinates...
	Successfully converged to displaced geometry.

	--- Internal Coordinate Step in ANG or DEG, aJ/ANG or AJ/DEG ---
	 ---------------------------------------------------------------------------
	   Coordinate                Previous        Force       Change         New 
	   ----------                --------       ------       ------       ------
	    1 R(1,2)          =      0.960180     0.001813    -0.000629     0.959551
	    2 R(2,3)          =      0.960180     0.001812    -0.000629     0.959551
	    3 B(1,2,3)        =    101.941815     0.000359     1.562379   103.504194
	 ---------------------------------------------------------------------------
	Successfully symmetrized geometry.

  ==> Convergence Check <==

  Measures of convergence in internal coordinates in au.
  Criteria marked as inactive (o), active & met (*), and active & unmet ( ).
  ---------------------------------------------------------------------------------------------
   Step     Total Energy     Delta E     MAX Force     RMS Force      MAX Disp      RMS Disp   
  ---------------------------------------------------------------------------------------------
    Convergence Criteria    1.00e-06 *    3.00e-04 *             o    1.20e-03 *             o
  ---------------------------------------------------------------------------------------------
      2     -76.33228896   -2.91e-03      4.72e-03      2.73e-03 o    2.73e-02      1.58e-02 o  ~
  ---------------------------------------------------------------------------------------------

	Writing optimization data to binary file.
	Structure for next step:
	Cartesian Geometry (in Angstrom)
	    H     0.0000000000   0.7535734386  -0.5334332056
	    O     0.0000000000   0.0000000000   0.0605914732
	    H     0.0000000000  -0.7535734386  -0.5334332056
			--------------------------
			 OPTKING Finished Execution 
			--------------------------

    Structure for next step:
    Molecular point group: c2v
    Full point group: C2v

    Geometry (in Angstrom), charge = 0, multiplicity = 1:

    H       
    O             1          OH
    H             2          OH      1         HOH

    HOH       =  103.5041939301
    OH        =    0.9595510688

gradient() will perform analytic gradient computation.
    Method 'CCSD(T)' requires SCF_TYPE = DISK_DF, setting.

*** tstart() called on atl1-1-02-012-5-l.pace.gatech.edu
*** at Tue May 10 16:59:27 2022

   => Loading Basis Set <=

    Name: CC-PVTZ
    Role: ORBITAL
    Keyword: BASIS
    atoms 1, 3 entry H          line    23 file /usr/local/pace-apps/manual/packages/psi4/1.3.2/intel-19.0.5/share/psi4/basis/cc-pvtz.gbs 
    atoms 2    entry O          line   262 file /usr/local/pace-apps/manual/packages/psi4/1.3.2/intel-19.0.5/share/psi4/basis/cc-pvtz.gbs 


         ---------------------------------------------------------
                                   SCF
               by Justin Turney, Rob Parrish, Andy Simmonett
                          and Daniel G. A. Smith
                              RHF Reference
                        1 Threads,   9536 MiB Core
         ---------------------------------------------------------

  ==> Geometry <==

    Molecular point group: c2v
    Full point group: C2v

    Geometry (in Angstrom), charge = 0, multiplicity = 1:

       Center              X                  Y                   Z               Mass       
    ------------   -----------------  -----------------  -----------------  -----------------
         H            0.000000000000     0.753573441543    -0.527544484224     1.007825032230
         O            0.000000000000     0.000000000000     0.066480196920    15.994914619570
         H            0.000000000000    -0.753573441543    -0.527544484224     1.007825032230

  Running in c2v symmetry.

  Rotational constants: A =     26.68811  B =     14.72754  C =      9.49038 [cm^-1]
  Rotational constants: A = 800089.34364  B = 441520.52193  C = 284514.38281 [MHz]
  Nuclear repulsion =    9.174858388663051

  Charge       = 0
  Multiplicity = 1
  Electrons    = 10
  Nalpha       = 5
  Nbeta        = 5

  ==> Algorithm <==

  SCF Algorithm Type is DISK_DF.
  DIIS enabled.
  MOM disabled.
  Fractional occupation disabled.
  Guess Type is READ.
  Energy threshold   = 1.00e-10
  Density threshold  = 1.00e-10
  Integral threshold = 0.00e+00

  ==> Primary Basis <==

  Basis Set: CC-PVTZ
    Blend: CC-PVTZ
    Number of shells: 22
    Number of basis function: 58
    Number of Cartesian functions: 65
    Spherical Harmonics?: true
    Max angular momentum: 3

   => Loading Basis Set <=

    Name: (CC-PVTZ AUX)
    Role: JKFIT
    Keyword: DF_BASIS_SCF
    atoms 1, 3 entry H          line    51 file /usr/local/pace-apps/manual/packages/psi4/1.3.2/intel-19.0.5/share/psi4/basis/cc-pvtz-jkfit.gbs 
    atoms 2    entry O          line   229 file /usr/local/pace-apps/manual/packages/psi4/1.3.2/intel-19.0.5/share/psi4/basis/cc-pvtz-jkfit.gbs 

   => Loading Basis Set <=

    Name: CC-PVTZ
    Role: ORBITAL
    Keyword: BASIS
    atoms 1, 3 entry H          line    23 file /usr/local/pace-apps/manual/packages/psi4/1.3.2/intel-19.0.5/share/psi4/basis/cc-pvtz.gbs 
    atoms 2    entry O          line   262 file /usr/local/pace-apps/manual/packages/psi4/1.3.2/intel-19.0.5/share/psi4/basis/cc-pvtz.gbs 

  Reading orbitals from file 180, no projection.

  ==> Pre-Iterations <==

   -------------------------------------------------------
    Irrep   Nso     Nmo     Nalpha   Nbeta   Ndocc  Nsocc
   -------------------------------------------------------
     A1        23      23       0       0       0       0
     A2         7       7       0       0       0       0
     B1        11      11       0       0       0       0
     B2        17      17       0       0       0       0
   -------------------------------------------------------
    Total      58      58       5       5       5       0
   -------------------------------------------------------

  ==> Integral Setup <==

  ==> DiskDFJK: Density-Fitted J/K Matrices <==

    J tasked:                  Yes
    K tasked:                  Yes
    wK tasked:                  No
    OpenMP threads:              1
    Integrals threads:           1
    Memory [MiB]:             7152
    Algorithm:                Core
    Integral Cache:           SAVE
    Schwarz Cutoff:          1E-12
    Fitting Condition:       1E-10

   => Auxiliary Basis Set <=

  Basis Set: (CC-PVTZ AUX)
    Blend: CC-PVTZ-JKFIT
    Number of shells: 45
    Number of basis function: 139
    Number of Cartesian functions: 166
    Spherical Harmonics?: true
    Max angular momentum: 4

  Minimum eigenvalue in the overlap matrix is 2.5246893405E-03.
  Using Symmetric Orthogonalization.

  SCF Guess: Orbitals guess was supplied from a previous computation.

  ==> Iterations <==

                           Total Energy        Delta E     RMS |[F,P]|

   @DF-RHF iter   0:   -76.05897247860622   -7.60590e+01   3.19448e-04 
   @DF-RHF iter   1:   -76.05692109023606    2.05139e-03   5.35615e-05 DIIS
   @DF-RHF iter   2:   -76.05692305329271   -1.96306e-06   1.69102e-05 DIIS
   @DF-RHF iter   3:   -76.05692337507072   -3.21778e-07   4.06019e-06 DIIS
   @DF-RHF iter   4:   -76.05692339988065   -2.48099e-08   1.16921e-06 DIIS
   @DF-RHF iter   5:   -76.05692340146925   -1.58860e-09   3.89498e-07 DIIS
   @DF-RHF iter   6:   -76.05692340155770   -8.84484e-11   7.94166e-08 DIIS
   @DF-RHF iter   7:   -76.05692340156156   -3.86535e-12   6.66138e-09 DIIS
   @DF-RHF iter   8:   -76.05692340156163   -7.10543e-14   1.07745e-09 DIIS
   @DF-RHF iter   9:   -76.05692340156168   -4.26326e-14   1.05980e-10 DIIS
   @DF-RHF iter  10:   -76.05692340156165    2.84217e-14   1.57484e-11 DIIS
  Energy and wave function converged.


  ==> Post-Iterations <==

    Orbital Energies [Eh]
    ---------------------

    Doubly Occupied:                                                      

       1A1   -20.555648     2A1    -1.345239     1B2    -0.706590  
       3A1    -0.579286     1B1    -0.504621  

    Virtual:                                                              

       4A1     0.141924     2B2     0.204073     3B2     0.541622  
       5A1     0.604620     6A1     0.668163     2B1     0.787316  
       7A1     0.795530     4B2     0.806004     1A2     0.862897  
       3B1     0.950912     8A1     1.134848     5B2     1.198828  
       6B2     1.522576     9A1     1.565050     4B1     2.041055  
       7B2     2.055441     2A2     2.063308    10A1     2.172961  
      11A1     2.234219    12A1     2.584220     8B2     2.965282  
       5B1     3.347045    13A1     3.485738     3A2     3.589666  
       9B2     3.659954     6B1     3.798017    10B2     3.877088  
      14A1     3.887312     4A2     3.964303     7B1     4.017074  
      11B2     4.072881    15A1     4.191725     5A2     4.306104  
      16A1     4.374519    12B2     4.595698     8B1     4.683302  
      13B2     4.862219    17A1     5.158022    18A1     5.251845  
      14B2     5.526316     9B1     6.056861    19A1     6.579333  
      10B1     6.919223     6A2     6.944358    11B1     7.010461  
      20A1     7.023192    15B2     7.038854    21A1     7.183453  
       7A2     7.240017    22A1     7.454337    16B2     7.797641  
      17B2     8.292616    23A1    12.835726  

    Final Occupation by Irrep:
             A1    A2    B1    B2 
    DOCC [     3,    0,    1,    1 ]

  @DF-RHF Final Energy:   -76.05692340156165

   => Energetics <=

    Nuclear Repulsion Energy =              9.1748583886630506
    One-Electron Energy =                -123.0807945471630944
    Two-Electron Energy =                  37.8490127569383858
    Total Energy =                        -76.0569234015616473

Computation Completed


Properties will be evaluated at   0.000000,   0.000000,   0.000000 [a0]

Properties computed using the SCF density matrix

  Nuclear Dipole Moment: [e a0]
     X:     0.0000      Y:     0.0000      Z:    -0.9888

  Electronic Dipole Moment: [e a0]
     X:     0.0000      Y:     0.0000      Z:     0.1850

  Dipole Moment: [e a0]
     X:     0.0000      Y:     0.0000      Z:    -0.8038     Total:     0.8038

  Dipole Moment: [D]
     X:     0.0000      Y:     0.0000      Z:    -2.0429     Total:     2.0429


*** tstop() called on atl1-1-02-012-5-l.pace.gatech.edu at Tue May 10 16:59:28 2022
Module time:
	user time   =       0.26 seconds =       0.00 minutes
	system time =       0.00 seconds =       0.00 minutes
	total time  =          1 seconds =       0.02 minutes
Total time:
	user time   =      10.59 seconds =       0.18 minutes
	system time =       1.10 seconds =       0.02 minutes
	total time  =         22 seconds =       0.37 minutes

  A requested method does not make use of molecular symmetry: further calculations in C1 point group.

  Constructing Basis Sets for DFOCC...

   => Loading Basis Set <=

    Name: (CC-PVTZ AUX)
    Role: JKFIT
    Keyword: DF_BASIS_SCF
    atoms 1, 3 entry H          line    51 file /usr/local/pace-apps/manual/packages/psi4/1.3.2/intel-19.0.5/share/psi4/basis/cc-pvtz-jkfit.gbs 
    atoms 2    entry O          line   229 file /usr/local/pace-apps/manual/packages/psi4/1.3.2/intel-19.0.5/share/psi4/basis/cc-pvtz-jkfit.gbs 

   => Loading Basis Set <=

    Name: (CC-PVTZ AUX)
    Role: RIFIT
    Keyword: DF_BASIS_CC
    atoms 1, 3 entry H          line    19 file /usr/local/pace-apps/manual/packages/psi4/1.3.2/intel-19.0.5/share/psi4/basis/cc-pvtz-ri.gbs 
    atoms 2    entry O          line   305 file /usr/local/pace-apps/manual/packages/psi4/1.3.2/intel-19.0.5/share/psi4/basis/cc-pvtz-ri.gbs 


*** tstart() called on atl1-1-02-012-5-l.pace.gatech.edu
*** at Tue May 10 16:59:28 2022



  Module DFOCC Options:
  ----------------------------------------------------------------------------
  ACTIVE                        => (empty)         !
  BASIS_RELATIVISTIC            => (empty)         !
  BENCH                         => (empty)         !
  CC_DIIS_MAX_VECS              => (empty)         !
  CC_DIIS_MIN_VECS              => (empty)         !
  CC_LAMBDA                     => TRUE            !
  CC_MAXITER                    => (empty)         !
  CC_TYPE                       => DF              !
  CHOLESKY                      => (empty)         !
  CHOLESKY_TOLERANCE            => (empty)         !
  CI_TYPE                       => (empty)         !
  COMPUT_S2                     => (empty)         !
  CUBEPROP_BASIS_FUNCTIONS      => (empty)         !
  CUBEPROP_FILEPATH             => (empty)         !
  CUBEPROP_ISOCONTOUR_THRESHOLD => (empty)         !
  CUBEPROP_ORBITALS             => (empty)         !
  CUBEPROP_TASKS                => (empty)         !
  CUBIC_BASIS_TOLERANCE         => (empty)         !
  CUBIC_BLOCK_MAX_POINTS        => (empty)         !
  CUBIC_GRID_OVERAGE            => (empty)         !
  CUBIC_GRID_SPACING            => (empty)         !
  CUTOFF                        => (empty)         !
  DEBUG                         => (empty)         !
  DERTYPE                       => FIRST           !
  DF_BASIS_CC                   => (empty)         !
  DIE_IF_NOT_CONVERGED          => (empty)         !
  DKH_ORDER                     => (empty)         !
  DOCC                          => (empty)         !
  DO_DIIS                       => (empty)         !
  DO_LEVEL_SHIFT                => (empty)         !
  DO_SCS                        => FALSE           !
  DO_SOS                        => FALSE           !
  E3_SCALE                      => (empty)         !
  EKT_IP                        => (empty)         !
  EXTERNAL_POTENTIAL_SYMMETRY   => (empty)         !
  E_CONVERGENCE                 => 1e-08           !
  FREEZE_CORE                   => TRUE            !
  FROZEN_DOCC                   => (empty)         !
  FROZEN_UOCC                   => (empty)         !
  HESS_TYPE                     => (empty)         !
  INTEGRAL_CUTOFF               => (empty)         !
  INTEGRAL_PACKAGE              => (empty)         !
  LEVEL_SHIFT                   => (empty)         !
  LINEQ_SOLVER                  => (empty)         !
  LITERAL_CFOUR                 => (empty)         !
  MAT_NUM_COLUMN_PRINT          => (empty)         !
  MAX_MOGRAD_CONVERGENCE        => (empty)         !
  MOLDEN_WITH_VIRTUAL           => (empty)         !
  MOLDEN_WRITE                  => (empty)         !
  MO_DIIS_NUM_VECS              => (empty)         !
  MO_MAXITER                    => (empty)         !
  MO_STEP_MAX                   => (empty)         !
  MP2_AMP_TYPE                  => (empty)         !
  MP2_OS_SCALE                  => (empty)         !
  MP2_SOS_SCALE                 => (empty)         !
  MP2_SOS_SCALE2                => (empty)         !
  MP2_SS_SCALE                  => (empty)         !
  MP2_TYPE                      => DF              !
  MP_TYPE                       => (empty)         !
  NAT_ORBS                      => (empty)         !
  NUM_FROZEN_DOCC               => (empty)         !
  NUM_FROZEN_UOCC               => (empty)         !
  NUM_GPUS                      => (empty)         !
  OCC_ORBS_PRINT                => (empty)         !
  OEPROP                        => (empty)         !
  OO_SCALE                      => (empty)         !
  OPT_METHOD                    => (empty)         !
  ORB_OPT                       => FALSE           !
  ORB_RESP_SOLVER               => (empty)         !
  ORTH_TYPE                     => (empty)         !
  PCG_BETA_TYPE                 => (empty)         !
  PCG_CONVERGENCE               => (empty)         !
  PCG_MAXITER                   => (empty)         !
  PCM                           => (empty)         !
[...]
	Memory requirement for (T) correction :      4.74 MB 

	Computing DF-MP2 energy ... 
	======================================================================= 
	Nuclear Repulsion Energy (a.u.)    :     9.17580531643980
	DF-HF Energy (a.u.)                :   -76.05693155929769
	REF Energy (a.u.)                  :   -76.05693155929769
	DF-MP2 Correlation Energy (a.u.)   :    -0.26165534839664
	DF-MP2 Total Energy (a.u.)         :   -76.31858690769434
	======================================================================= 

 ============================================================================== 
 ================ Performing DF-CCSD iterations... ============================ 
 ============================================================================== 

  Iter       E_corr                  DE                 T2 RMS        T1 RMS     
  ----   ----------------      ----------------       ----------    ----------   
   1      -0.2621565112         -0.0005011628         1.14e-04      1.11e-03 
   2      -0.2670240316         -0.0048675204         4.65e-05      1.23e-04 
   3      -0.2677285121         -0.0007044805         1.36e-05      9.85e-05 
   4      -0.2677209878          0.0000075242         2.93e-06      1.45e-05 
   5      -0.2677427194         -0.0000217316         6.86e-07      1.00e-05 
   6      -0.2677432840         -0.0000005646         1.83e-07      3.31e-06 
   7      -0.2677435738         -0.0000002898         4.27e-08      1.21e-06 
   8      -0.2677431424          0.0000004314         1.65e-08      2.91e-07 
   9      -0.2677430314          0.0000001110         4.50e-09      5.56e-08 
  10      -0.2677429969          0.0000000345         1.18e-09      8.68e-09 
  11      -0.2677429885          0.0000000083         2.77e-10      2.05e-09 

 ============================================================================== 
 ===================== DF-CCSD ITERATIONS ARE CONVERGED ======================= 
 ============================================================================== 

	T1 diagnostic reference value:     0.02000000000000
	T1 diagnostic                :     0.00656001324602

	======================================================================= 
	================ CCSD FINAL RESULTS =================================== 
	======================================================================= 
	Nuclear Repulsion Energy (a.u.)    :     9.17580531643980
	SCF Energy (a.u.)                  :   -76.05693155929769
	REF Energy (a.u.)                  :   -76.05693155929769
	DF-CCSD Correlation Energy (a.u.)  :    -0.26774298853077
	DF-CCSD Total Energy (a.u.)        :   -76.32467454782847
	======================================================================= 


*** tstop() called on atl1-1-02-012-5-l.pace.gatech.edu at Tue May 10 17:00:54 2022
Module time:
	user time   =       1.03 seconds =       0.02 minutes
	system time =       0.14 seconds =       0.00 minutes
	total time  =          3 seconds =       0.05 minutes
Total time:
	user time   =      53.69 seconds =       0.89 minutes
	system time =       5.38 seconds =       0.09 minutes
	total time  =        108 seconds =       1.80 minutes

*** tstart() called on atl1-1-02-012-5-l.pace.gatech.edu
*** at Tue May 10 17:00:54 2022


 ============================================================================== 
 ============================================================================== 
 ============================================================================== 

                       DF-CCSD(T)   
              Program Written by Ugur Bozkaya
              Latest Revision April 16, 2017

 ============================================================================== 
 ============================================================================== 
 ============================================================================== 

	Computing (T) correction...
	nthreads: 1 
	Number of ijk combinations: 64 
               10.9         0 s
               20.3         0 s
               31.2         0 s
               40.6         0 s
               50.0         1 s
               60.9         1 s
               70.3         1 s
               81.2         1 s
               90.6         1 s
              100.0         2 s
	(T) Correction (a.u.)              :    -0.00767393633041
	DF-CCSD(T) Total Energy (a.u.)     :   -76.33234848415887

*** tstop() called on atl1-1-02-012-5-l.pace.gatech.edu at Tue May 10 17:00:56 2022
Module time:
	user time   =       2.04 seconds =       0.03 minutes
	system time =       0.04 seconds =       0.00 minutes
	total time  =          2 seconds =       0.03 minutes
Total time:
	user time   =      55.73 seconds =       0.93 minutes
	system time =       5.42 seconds =       0.09 minutes
	total time  =        110 seconds =       1.83 minutes

*** tstart() called on atl1-1-02-012-5-l.pace.gatech.edu
*** at Tue May 10 17:00:56 2022


 ============================================================================== 
 ================ Performing DF-CCSDL iterations... =========================== 
 ============================================================================== 

  Iter       E_corr                  DE                 L2 RMS        L1 RMS     
  ----   ----------------      ----------------       ----------    ----------   
   1      -0.2788162310         -0.0110732425         7.59e-05      4.64e-04 
   2      -0.2774099713          0.0014062597         1.16e-05      1.49e-04 
   3      -0.2774384907         -0.0000285193         2.78e-06      2.25e-05 
   4      -0.2774674755         -0.0000289848         6.57e-07      1.58e-05 
   5      -0.2774650307          0.0000024448         2.59e-07      4.86e-06 
   6      -0.2774649467          0.0000000840         6.29e-08      1.56e-06 
   7      -0.2774646445          0.0000003022         1.76e-08      2.95e-07 
   8      -0.2774645750          0.0000000694         3.50e-09      7.60e-08 
   9      -0.2774646160         -0.0000000410         1.13e-09      1.32e-08 
  10      -0.2774646123          0.0000000037         2.26e-10      3.19e-09 

 ============================================================================== 
 ===================== DF-CCSDL ITERATIONS ARE CONVERGED ====================== 
 ============================================================================== 

	Computing 3-index intermediates...

*** tstop() called on atl1-1-02-012-5-l.pace.gatech.edu at Tue May 10 17:00:59 2022
Module time:
	user time   =       0.90 seconds =       0.01 minutes
	system time =       0.22 seconds =       0.00 minutes
	total time  =          3 seconds =       0.05 minutes
Total time:
	user time   =      56.63 seconds =       0.94 minutes
	system time =       5.64 seconds =       0.09 minutes
	total time  =        113 seconds =       1.88 minutes

*** tstart() called on atl1-1-02-012-5-l.pace.gatech.edu
*** at Tue May 10 17:00:59 2022


 ============================================================================== 
 ============================================================================== 
 ============================================================================== 

                         DFPDM   
              Particle Density Matrix Code   
               for Density-Fitted Methods       
                   by Ugur Bozkaya
              Latest Revision December 19, 2016

 ============================================================================== 
 ============================================================================== 
 ============================================================================== 

	Computing unrelaxed response density matrices...

	Forming independent-pairs...
	Number of independent-pairs: 265
	Computing the generalized Fock matrix (GFM)...
	Computing the orbital gradient...
	Forming strictly canonical effective orbital gradient...
	Solving orbital Z-vector equations...

	            PCG Solver 
	   ------------------------------ 
	Iter     RMS Z Vector        RMS Residual  
	----    ---------------    ---------------
	  1         1.90e-04         3.07e-04
	  2         8.70e-05         6.98e-05
	  3         2.15e-05         1.25e-05
	  4         3.08e-06         2.69e-06
	  5         5.75e-07         4.20e-07

	Computing the relaxed PDMs and GFM...

*** tstop() called on atl1-1-02-012-5-l.pace.gatech.edu at Tue May 10 17:01:00 2022
Module time:
	user time   =       0.18 seconds =       0.00 minutes
	system time =       0.05 seconds =       0.00 minutes
	total time  =          1 seconds =       0.02 minutes
Total time:
	user time   =      56.81 seconds =       0.95 minutes
	system time =       5.69 seconds =       0.09 minutes
	total time  =        114 seconds =       1.90 minutes

*** tstart() called on atl1-1-02-012-5-l.pace.gatech.edu
*** at Tue May 10 17:01:00 2022


 ============================================================================== 
 ============================================================================== 
 ============================================================================== 

                         DFGRAD   
            A General Analytic Gradients Code   
               for Density-Fitted Methods       
                   by Ugur Bozkaya
              Latest Revision December 19, 2016

 ============================================================================== 
 ============================================================================== 
 ============================================================================== 

	Analytic gradients computation is starting...
	Forming Gamma^tilde...
	Backtransforming OPDM, TPDM, and GFM to the AO basis...
	Computing analytic gradients...

  -Nuclear Gradient:
     Atom            X                  Y                   Z
    ------   -----------------  -----------------  -----------------
       1        0.000000000000    -2.042973822552     1.511474248873
       2        0.000000000000     0.015079809179    -3.010730355897
       3        0.000000000000     2.027894013373     1.499256107023


  -Core Hamiltonian Gradient:
     Atom            X                  Y                   Z
    ------   -----------------  -----------------  -----------------
       1        0.000000000000     4.431340247183    -3.521781113366
       2        0.000000000000    -0.018255804254     7.027666378673
       3       -0.000000000000    -4.413084442928    -3.505885265307


  -Overlap Gradient:
     Atom            X                  Y                   Z
    ------   -----------------  -----------------  -----------------
       1       -0.000000000000    -0.218911074406     0.202687656303
       2       -0.000000000000     0.000412533244    -0.404977755660
       3        0.000000000000     0.218498541162     0.202290099357


  -One-Electron Gradient:
     Atom            X                  Y                   Z
    ------   -----------------  -----------------  -----------------
       1        0.000000000000     4.431340247183    -3.521781113366
       2        0.000000000000    -0.018255804254     7.027666378673
       3       -0.000000000000    -4.413084442928    -3.505885265307


  -Two-Electron Gradient:
     Atom            X                  Y                   Z
    ------   -----------------  -----------------  -----------------
       1       -0.000000000000    -2.171059082796     1.808878878716
       2       -0.000000000000     0.005929207283    -3.611987001902
       3        0.000000000000     2.165129875513     1.803108123187


  -Total Gradient:
     Atom            X                  Y                   Z
    ------   -----------------  -----------------  -----------------
       1        0.000000000000    -0.001603732571     0.001259670526
       2        0.000000000000     0.003165745452    -0.000028734786
       3       -0.000000000000    -0.001562012880    -0.001230935740


*** tstop() called on atl1-1-02-012-5-l.pace.gatech.edu at Tue May 10 17:01:00 2022
Module time:
	user time   =       0.32 seconds =       0.01 minutes
	system time =       0.03 seconds =       0.00 minutes
	total time  =          0 seconds =       0.00 minutes
Total time:
	user time   =      57.13 seconds =       0.95 minutes
	system time =       5.72 seconds =       0.10 minutes
	total time  =        114 seconds =       1.90 minutes

         ----------------------------------------------------------
                                   FINDIF
                     R. A. King and Jonathon Misiewicz
         ---------------------------------------------------------

  Computing second-derivative from gradients using projected, 
  symmetry-adapted, cartesian coordinates.

  6 gradients passed in, including the reference geometry.
  Generating complete list of displacements from unique ones.

    Operation 2 takes plus displacements of irrep B2 to minus ones.

-------------------------------------------------------------


  ==> Harmonic Vibrational Analysis <==

  non-mass-weighted Hessian:       Symmetric? True   Hermitian? True   Lin Dep Dim?  6 (0)
  projection of translations (True) and rotations (True) removed 6 degrees of freedom (6)
  total projector:                 Symmetric? True   Hermitian? True   Lin Dep Dim?  6 (6)
  mass-weighted Hessian:           Symmetric? True   Hermitian? True   Lin Dep Dim?  6 (0)
  pre-proj  low-frequency mode:    0.0000i [cm^-1]
  pre-proj  low-frequency mode:    0.0000i [cm^-1]
  pre-proj  low-frequency mode:    0.0000i [cm^-1]
  pre-proj  low-frequency mode:    0.0000  [cm^-1]
  pre-proj  low-frequency mode:    0.0000  [cm^-1]
  pre-proj  low-frequency mode:    0.0000  [cm^-1]
  pre-proj  all modes:['0.0000i' '0.0000i' '0.0000i' '0.0000' '0.0000' '0.0000' '1668.9568'
 '3840.9041' '3945.4867']
  projected mass-weighted Hessian: Symmetric? True   Hermitian? True   Lin Dep Dim?  6 (6)
  post-proj low-frequency mode:    0.0000i [cm^-1] (TR)
  post-proj low-frequency mode:    0.0000i [cm^-1] (TR)
  post-proj low-frequency mode:    0.0000i [cm^-1] (TR)
  post-proj low-frequency mode:    0.0000i [cm^-1] (TR)
  post-proj low-frequency mode:    0.0000  [cm^-1] (TR)
  post-proj low-frequency mode:    0.0000  [cm^-1] (TR)
  post-proj  all modes:['0.0000i' '0.0000i' '0.0000i' '0.0000i' '0.0000' '0.0000' '1668.9568'
 '3840.9041' '3945.4867']

  Vibration                       7                   8                   9           
  Freq [cm^-1]                1668.9568           3840.9041           3945.4867       
  Irrep                           A                   A                   A           
  Reduced mass [u]              1.0826              1.0453              1.0809        
  Force const [mDyne/A]         1.7766              9.0855              9.9141        
  Turning point v=0 [a0]        0.2581              0.1732              0.1680        
  RMS dev v=0 [a0 u^1/2]        0.1899              0.1252              0.1235        
  Char temp [K]               2401.2573           5526.2058           5676.6769       
  ----------------------------------------------------------------------------------
      1   H                0.00  0.43  0.56    0.00  0.58 -0.40    0.00  0.55 -0.44   
      2   O               -0.00 -0.00 -0.07    0.00 -0.00  0.05   -0.00 -0.07 -0.00   
      3   H                0.00 -0.43  0.56    0.00 -0.58 -0.40    0.00  0.55  0.44   

  ==> Thermochemistry Components <==

  Entropy, S
    Electronic S            0.000 [cal/(mol K)]        0.000 [J/(mol K)]       0.00000000 [mEh/K] (multiplicity = 1)
    Translational S        34.608 [cal/(mol K)]      144.801 [J/(mol K)]       0.05515177 [mEh/K] (mol. weight = 18.0106 [u], P = 101325.00 [Pa])
    Rotational S           10.467 [cal/(mol K)]       43.794 [J/(mol K)]       0.01668016 [mEh/K] (symmetry no. = 2)
    Vibrational S           0.006 [cal/(mol K)]        0.024 [J/(mol K)]       0.00000912 [mEh/K]
  Total S                  45.081 [cal/(mol K)]      188.619 [J/(mol K)]       0.07184105 [mEh/K]
  Correction S              0.000 [cal/(mol K)]        0.000 [J/(mol K)]       0.00000000 [mEh/K]

  Constant volume heat capacity, Cv
    Electronic Cv           0.000 [cal/(mol K)]        0.000 [J/(mol K)]       0.00000000 [mEh/K]
    Translational Cv        2.981 [cal/(mol K)]       12.472 [J/(mol K)]       0.00475022 [mEh/K]
    Rotational Cv           2.981 [cal/(mol K)]       12.472 [J/(mol K)]       0.00475022 [mEh/K]
    Vibrational Cv          0.041 [cal/(mol K)]        0.172 [J/(mol K)]       0.00006535 [mEh/K]
  Total Cv                  6.003 [cal/(mol K)]       25.115 [J/(mol K)]       0.00956578 [mEh/K]
  Correction Cv             0.000 [cal/(mol K)]        0.000 [J/(mol K)]       0.00000000 [mEh/K]

  Constant pressure heat capacity, Cp
    Electronic Cp           0.000 [cal/(mol K)]        0.000 [J/(mol K)]       0.00000000 [mEh/K]
    Translational Cp        4.968 [cal/(mol K)]       20.786 [J/(mol K)]       0.00791703 [mEh/K]
    Rotational Cp           2.981 [cal/(mol K)]       12.472 [J/(mol K)]       0.00475022 [mEh/K]
    Vibrational Cp          0.041 [cal/(mol K)]        0.172 [J/(mol K)]       0.00006535 [mEh/K]
  Total Cp                  7.990 [cal/(mol K)]       33.429 [J/(mol K)]       0.01273260 [mEh/K]
  Correction Cp             0.000 [cal/(mol K)]        0.000 [J/(mol K)]       0.00000000 [mEh/K]

  ==> Thermochemistry Energy Analysis <==

  Raw electronic energy, E0
  Total E0, Electronic energy at well bottom at 0 [K]                  -76.33235585 [Eh]

  Zero-point energy, ZPE_vib = Sum_i nu_i / 2
    Electronic ZPE          0.000 [kcal/mol]        0.000 [kJ/mol]       0.00000000 [Eh]
    Translational ZPE       0.000 [kcal/mol]        0.000 [kJ/mol]       0.00000000 [Eh]
    Rotational ZPE          0.000 [kcal/mol]        0.000 [kJ/mol]       0.00000000 [Eh]
    Vibrational ZPE        13.517 [kcal/mol]       56.556 [kJ/mol]       0.02154087 [Eh]        4727.674 [cm^-1]
  Correction ZPE           13.517 [kcal/mol]       56.556 [kJ/mol]       0.02154087 [Eh]        4727.674 [cm^-1]
  Total ZPE, Electronic energy at 0 [K]                                -76.31081498 [Eh]

  Thermal Energy, E (includes ZPE)
    Electronic E            0.000 [kcal/mol]        0.000 [kJ/mol]       0.00000000 [Eh]
    Translational E         0.889 [kcal/mol]        3.718 [kJ/mol]       0.00141628 [Eh]
    Rotational E            0.889 [kcal/mol]        3.718 [kJ/mol]       0.00141628 [Eh]
    Vibrational E          13.519 [kcal/mol]       56.562 [kJ/mol]       0.02154329 [Eh]
  Correction E             15.296 [kcal/mol]       63.999 [kJ/mol]       0.02437584 [Eh]
  Total E, Electronic energy at  298.15 [K]                            -76.30798001 [Eh]

  Enthalpy, H_trans = E_trans + k_B * T
    Electronic H            0.000 [kcal/mol]        0.000 [kJ/mol]       0.00000000 [Eh]
    Translational H         1.481 [kcal/mol]        6.197 [kJ/mol]       0.00236046 [Eh]
    Rotational H            0.889 [kcal/mol]        3.718 [kJ/mol]       0.00141628 [Eh]
    Vibrational H          13.519 [kcal/mol]       56.562 [kJ/mol]       0.02154329 [Eh]
  Correction H             15.889 [kcal/mol]       66.478 [kJ/mol]       0.02532002 [Eh]
  Total H, Enthalpy at  298.15 [K]                                     -76.30703583 [Eh]

  Gibbs free energy, G = H - T * S
    Electronic G            0.000 [kcal/mol]        0.000 [kJ/mol]       0.00000000 [Eh]
    Translational G        -8.837 [kcal/mol]      -36.975 [kJ/mol]      -0.01408304 [Eh]
    Rotational G           -2.232 [kcal/mol]       -9.339 [kJ/mol]      -0.00355691 [Eh]
    Vibrational G          13.517 [kcal/mol]       56.555 [kJ/mol]       0.02154057 [Eh]
  Correction G              2.448 [kcal/mol]       10.241 [kJ/mol]       0.00390061 [Eh]
  Total G, Free enthalpy at  298.15 [K]                                -76.32845523 [Eh]

    Psi4 stopped on: Tuesday, 10 May 2022 05:01PM
    Psi4 wall time for execution: 0:01:53.70

*** Psi4 exiting successfully. Buy a developer a beer!
