
    -----------------------------------------------------------------------
          Psi4: An Open-Source Ab Initio Electronic Structure Package
                               Psi4 1.3.2 release

                         Git: Rev {} zzzzzzz 


    R. M. Parrish, L. A. Burns, D. G. A. Smith, A. C. Simmonett,
    A. E. DePrince III, E. G. Hohenstein, U. Bozkaya, A. Yu. Sokolov,
    R. Di Remigio, R. M. Richard, J. F. Gonthier, A. M. James,
    H. R. McAlexander, A. Kumar, M. Saitow, X. Wang, B. P. Pritchard,
    P. Verma, H. F. Schaefer III, K. Patkowski, R. A. King, E. F. Valeev,
    F. A. Evangelista, J. M. Turney, T. D. Crawford, and C. D. Sherrill,
    J. Chem. Theory Comput. 13(7) pp 3185--3197 (2017).
    (doi: 10.1021/acs.jctc.7b00174)


                         Additional Contributions by
    P. Kraus, H. Kruse, M. H. Lechner, M. C. Schieber, R. A. Shaw,
    A. Alenaizan, R. Galvelis, Z. L. Glick, S. Lehtola, and J. P. Misiewicz

    -----------------------------------------------------------------------


    Psi4 started on: Tuesday, 10 May 2022 04:33PM

    Process ID: 45044
    Host:       atl1-1-02-012-5-l.pace.gatech.edu
    PSIDATADIR: /usr/local/pace-apps/manual/packages/psi4/1.3.2/intel-19.0.5/share/psi4
    Memory:     500.0 MiB
    Threads:    1
    
  ==> Input File <==

--------------------------------------------------------------------------
#PSI4 file for HOH opt

memory 10 GB

molecule mol {
0 1
H 
O 1 OH
H 2 OH 1 HOH

OH = 1
HOH = 104.5
}

set {
  scf_type df
  mp2_type df
  cc_type df
  freeze_core true
  basis cc-pvtz
}

optimize('hf')
frequencies('hf', dertype=1)

--------------------------------------------------------------------------

  Memory set to   9.313 GiB by Python driver.
gradient() will perform analytic gradient computation.

*** tstart() called on atl1-1-02-012-5-l.pace.gatech.edu
*** at Tue May 10 16:33:47 2022

   => Loading Basis Set <=

    Name: CC-PVTZ
    Role: ORBITAL
    Keyword: BASIS
    atoms 1, 3 entry H          line    23 file /usr/local/pace-apps/manual/packages/psi4/1.3.2/intel-19.0.5/share/psi4/basis/cc-pvtz.gbs 
    atoms 2    entry O          line   262 file /usr/local/pace-apps/manual/packages/psi4/1.3.2/intel-19.0.5/share/psi4/basis/cc-pvtz.gbs 


         ---------------------------------------------------------
                                   SCF
               by Justin Turney, Rob Parrish, Andy Simmonett
                          and Daniel G. A. Smith
                              RHF Reference
                        1 Threads,   9536 MiB Core
         ---------------------------------------------------------

  ==> Geometry <==

    Molecular point group: c2v
    Full point group: C2v

    Geometry (in Angstrom), charge = 0, multiplicity = 1:

       Center              X                  Y                   Z               Mass       
    ------------   -----------------  -----------------  -----------------  -----------------
         H            0.000000000000     0.790689573744    -0.543701060715     1.007825032230
         O            0.000000000000     0.000000000000     0.068516219320    15.994914619570
         H            0.000000000000    -0.790689573744    -0.543701060715     1.007825032230

  Running in c2v symmetry.

  Rotational constants: A =     25.12555  B =     13.37733  C =      8.72955 [cm^-1]
  Rotational constants: A = 753245.07149  B = 401042.16706  C = 261705.25473 [MHz]
  Nuclear repulsion =    8.801465564567406

  Charge       = 0
  Multiplicity = 1
  Electrons    = 10
  Nalpha       = 5
  Nbeta        = 5

  ==> Algorithm <==

  SCF Algorithm Type is DF.
  DIIS enabled.
  MOM disabled.
  Fractional occupation disabled.
  Guess Type is SAD.
  Energy threshold   = 1.00e-08
  Density threshold  = 1.00e-08
  Integral threshold = 0.00e+00

  ==> Primary Basis <==

  Basis Set: CC-PVTZ
    Blend: CC-PVTZ
    Number of shells: 22
    Number of basis function: 58
    Number of Cartesian functions: 65
    Spherical Harmonics?: true
    Max angular momentum: 3

   => Loading Basis Set <=

    Name: (CC-PVTZ AUX)
    Role: JKFIT
    Keyword: DF_BASIS_SCF
    atoms 1, 3 entry H          line    51 file /usr/local/pace-apps/manual/packages/psi4/1.3.2/intel-19.0.5/share/psi4/basis/cc-pvtz-jkfit.gbs 
    atoms 2    entry O          line   229 file /usr/local/pace-apps/manual/packages/psi4/1.3.2/intel-19.0.5/share/psi4/basis/cc-pvtz-jkfit.gbs 

  ==> Pre-Iterations <==

   -------------------------------------------------------
    Irrep   Nso     Nmo     Nalpha   Nbeta   Ndocc  Nsocc
   -------------------------------------------------------
     A1        23      23       0       0       0       0
     A2         7       7       0       0       0       0
     B1        11      11       0       0       0       0
     B2        17      17       0       0       0       0
   -------------------------------------------------------
    Total      58      58       5       5       5       0
   -------------------------------------------------------

  ==> Integral Setup <==

  DFHelper Memory: AOs need 0.004 GiB; user supplied 6.985 GiB. Using in-core AOs.

  ==> MemDFJK: Density-Fitted J/K Matrices <==

    J tasked:                   Yes
    K tasked:                   Yes
    wK tasked:                   No
    OpenMP threads:               1
    Memory [MiB]:              7152
    Algorithm:                 Core
    Schwarz Cutoff:           1E-12
    Mask sparsity (%):       0.0000
    Fitting Condition:        1E-10

   => Auxiliary Basis Set <=

  Basis Set: (CC-PVTZ AUX)
    Blend: CC-PVTZ-JKFIT
    Number of shells: 45
    Number of basis function: 139
    Number of Cartesian functions: 166
    Spherical Harmonics?: true
    Max angular momentum: 4

  Minimum eigenvalue in the overlap matrix is 2.9026033530E-03.
  Using Symmetric Orthogonalization.

  SCF Guess: Superposition of Atomic Densities via on-the-fly atomic UHF.

  ==> Iterations <==

                           Total Energy        Delta E     RMS |[F,P]|

   @DF-RHF iter SAD:   -75.44807830241217   -7.54481e+01   0.00000e+00 
   @DF-RHF iter   1:   -75.97024965857614   -5.22171e-01   1.42962e-02 DIIS
   @DF-RHF iter   2:   -76.02234132073475   -5.20917e-02   9.66285e-03 DIIS
   @DF-RHF iter   3:   -76.05049330685769   -2.81520e-02   7.32828e-04 DIIS
   @DF-RHF iter   4:   -76.05094958140909   -4.56275e-04   1.94076e-04 DIIS
   @DF-RHF iter   5:   -76.05098397707576   -3.43957e-05   4.02515e-05 DIIS
   @DF-RHF iter   6:   -76.05098612316736   -2.14609e-06   7.76317e-06 DIIS
   @DF-RHF iter   7:   -76.05098620210393   -7.89366e-08   1.25011e-06 DIIS
   @DF-RHF iter   8:   -76.05098620385220   -1.74828e-09   2.23160e-07 DIIS
   @DF-RHF iter   9:   -76.05098620391297   -6.07656e-11   6.43251e-08 DIIS
   @DF-RHF iter  10:   -76.05098620391820   -5.22959e-12   7.27806e-09 DIIS
  Energy and wave function converged.


  ==> Post-Iterations <==

    Orbital Energies [Eh]
    ---------------------

    Doubly Occupied:                                                      

       1A1   -20.562138     2A1    -1.324719     1B2    -0.687037  
       3A1    -0.569630     1B1    -0.501255  

    Virtual:                                                              

       4A1     0.137557     2B2     0.199842     3B2     0.526492  
       5A1     0.576831     6A1     0.677461     2B1     0.785997  
       7A1     0.793875     4B2     0.805787     1A2     0.852292  
       3B1     0.951778     8A1     1.165822     5B2     1.172443  
       6B2     1.489228     9A1     1.501210     4B1     2.019244  
       2A2     2.048947     7B2     2.115800    10A1     2.157398  
      11A1     2.253311    12A1     2.570131     8B2     2.925729  
       5B1     3.356690    13A1     3.471321     3A2     3.552110  
       9B2     3.599876     6B1     3.766354    10B2     3.826770  
      14A1     3.874687     4A2     3.936042     7B1     4.015354  
      11B2     4.055492    15A1     4.135577     5A2     4.246989  
      16A1     4.323614    12B2     4.478353     8B1     4.645991  
      13B2     4.776742    17A1     5.012617    18A1     5.229074  
      14B2     5.516784     9B1     5.976687    19A1     6.414996  
      10B1     6.772506     6A2     6.849685    20A1     6.905158  
      15B2     6.934087    11B1     7.012922    21A1     7.168713  
       7A2     7.181120    22A1     7.433881    16B2     7.697134  
      17B2     8.106356    23A1    12.196039  

    Final Occupation by Irrep:
             A1    A2    B1    B2 
    DOCC [     3,    0,    1,    1 ]

  @DF-RHF Final Energy:   -76.05098620391820

   => Energetics <=

    Nuclear Repulsion Energy =              8.8014655645674065
    One-Electron Energy =                -122.4153443996618051
    Two-Electron Energy =                  37.5628926311761973
    Total Energy =                        -76.0509862039181996

Computation Completed


Properties will be evaluated at   0.000000,   0.000000,   0.000000 [a0]

Properties computed using the SCF density matrix

  Nuclear Dipole Moment: [e a0]
     X:     0.0000      Y:     0.0000      Z:    -1.0191

  Electronic Dipole Moment: [e a0]
     X:     0.0000      Y:     0.0000      Z:     0.2092

  Dipole Moment: [e a0]
     X:     0.0000      Y:     0.0000      Z:    -0.8099     Total:     0.8099

  Dipole Moment: [D]
     X:     0.0000      Y:     0.0000      Z:    -2.0586     Total:     2.0586


*** tstop() called on atl1-1-02-012-5-l.pace.gatech.edu at Tue May 10 16:33:48 2022
Module time:
	user time   =       0.42 seconds =       0.01 minutes
	system time =       0.01 seconds =       0.00 minutes
	total time  =          1 seconds =       0.02 minutes
Total time:
	user time   =       0.42 seconds =       0.01 minutes
	system time =       0.01 seconds =       0.00 minutes
	total time  =          1 seconds =       0.02 minutes

*** tstart() called on atl1-1-02-012-5-l.pace.gatech.edu
*** at Tue May 10 16:33:48 2022


         ------------------------------------------------------------
                                   SCF GRAD                          
                          Rob Parrish, Justin Turney,                
                       Andy Simmonett, and Alex Sokolov              
         ------------------------------------------------------------

  ==> Geometry <==

    Molecular point group: c2v
    Full point group: C2v

    Geometry (in Angstrom), charge = 0, multiplicity = 1:

       Center              X                  Y                   Z               Mass       
    ------------   -----------------  -----------------  -----------------  -----------------
         H            0.000000000000     0.790689573744    -0.543701060715     1.007825032230
         O            0.000000000000     0.000000000000     0.068516219320    15.994914619570
         H            0.000000000000    -0.790689573744    -0.543701060715     1.007825032230

  Nuclear repulsion =    8.801465564567419

  ==> Basis Set <==

  Basis Set: CC-PVTZ
    Blend: CC-PVTZ
    Number of shells: 22
    Number of basis function: 58
    Number of Cartesian functions: 65
    Spherical Harmonics?: true
    Max angular momentum: 3

  ==> DFJKGrad: Density-Fitted SCF Gradients <==

    Gradient:                    1
    J tasked:                  Yes
    K tasked:                  Yes
    wK tasked:                  No
    OpenMP threads:              1
    Integrals threads:           1
    Memory [MiB]:             7152
    Schwarz Cutoff:          0E+00
    Fitting Condition:       1E-10

   => Auxiliary Basis Set <=

  Basis Set: (CC-PVTZ AUX)
    Blend: CC-PVTZ-JKFIT
    Number of shells: 45
    Number of basis function: 139
    Number of Cartesian functions: 166
    Spherical Harmonics?: true
    Max angular momentum: 4


  -Total Gradient:
     Atom            X                  Y                   Z
    ------   -----------------  -----------------  -----------------
       1       -0.000000000000     0.045403899636    -0.033966153996
       2        0.000000000000     0.000000000000     0.067932307993
       3        0.000000000000    -0.045403899636    -0.033966153996


*** tstop() called on atl1-1-02-012-5-l.pace.gatech.edu at Tue May 10 16:33:48 2022
Module time:
	user time   =       0.19 seconds =       0.00 minutes
	system time =       0.03 seconds =       0.00 minutes
	total time  =          0 seconds =       0.00 minutes
Total time:
	user time   =       0.61 seconds =       0.01 minutes
	system time =       0.04 seconds =       0.00 minutes
	total time  =          1 seconds =       0.02 minutes

			-----------------------------------------
			 OPTKING 2.0: for geometry optimizations 
			  - R.A. King,  Bethel University        
			-----------------------------------------

	Internal coordinates to be generated automatically.
	Detected frag 1 with atoms:  1 2 3
	---Fragment 1 Bond Connectivity---
	 1 : 2
	 2 : 1 3
	 3 : 2

	---Fragment 1 Geometry and Gradient---
	 H           0.0000000000        1.4941867446       -1.0274460989
	 O           0.0000000000        0.0000000000        0.1294768897
	 H           0.0000000000       -1.4941867446       -1.0274460989
	            -0.0000000000        0.0454038996       -0.0339661540
	             0.0000000000        0.0000000000        0.0679323080
	             0.0000000000       -0.0454038996       -0.0339661540

	Previous optimization step data not found.  Starting new optimization.

	---Fragment 1 Intrafragment Coordinates---
	 - Coordinate -           - BOHR/RAD -       - ANG/DEG -
	 R(1,2)           =         1.889726	       1.000000
	 R(2,3)           =         1.889726	       1.000000
	 B(1,2,3)         =         1.823869	     104.500000

	Current energy   :       -76.0509862039

	Generating empirical Hessian (Schlegel '84) for each fragment.
	Taking RFO optimization step.
	Going to follow RFO solution 1.
	Using RFO vector 1.
	Norm of target step-size    0.16395
	Projected energy change by RFO approximation:        -0.0089345893

	Back-transformation to cartesian coordinates...
	Successfully converged to displaced geometry.

	--- Internal Coordinate Step in ANG or DEG, aJ/ANG or AJ/DEG ---
	 ---------------------------------------------------------------------------
	   Coordinate                Previous        Force       Change         New 
	   ----------                --------       ------       ------       ------
	    1 R(1,2)          =      1.000000    -0.467095    -0.061225     0.938775
	    2 R(2,3)          =      1.000000    -0.467095    -0.061225     0.938775
	    3 B(1,2,3)        =    104.500000    -0.000135    -0.588069   103.911931
	 ---------------------------------------------------------------------------
	Successfully symmetrized geometry.

  ==> Convergence Check <==

  Measures of convergence in internal coordinates in au.
  Criteria marked as inactive (o), active & met (*), and active & unmet ( ).
  --------------------------------------------------------------------------------------------- ~
   Step     Total Energy     Delta E     MAX Force     RMS Force      MAX Disp      RMS Disp    ~
  --------------------------------------------------------------------------------------------- ~
    Convergence Criteria    1.00e-06 *    3.00e-04 *             o    1.20e-03 *             o  ~
  --------------------------------------------------------------------------------------------- ~
      1     -76.05098620   -7.61e+01      5.67e-02      4.63e-02 o    1.16e-01      9.47e-02 o  ~
  ---------------------------------------------------------------------------------------------

	Writing optimization data to binary file.
	Structure for next step:
	Cartesian Geometry (in Angstrom)
	    H     0.0000000000   0.7393200321  -0.5324738675
	    O     0.0000000000   0.0000000000   0.0460618370
	    H     0.0000000000  -0.7393200321  -0.5324738675
			--------------------------
			 OPTKING Finished Execution 
			--------------------------

    Structure for next step:
    Molecular point group: c2v
    Full point group: C2v

    Geometry (in Angstrom), charge = 0, multiplicity = 1:

    H       
    O             1          OH
    H             2          OH      1         HOH

    HOH       =  103.9119306967
    OH        =    0.9387745619

gradient() will perform analytic gradient computation.

*** tstart() called on atl1-1-02-012-5-l.pace.gatech.edu
*** at Tue May 10 16:33:48 2022

   => Loading Basis Set <=

    Name: CC-PVTZ
    Role: ORBITAL
    Keyword: BASIS
    atoms 1, 3 entry H          line    23 file /usr/local/pace-apps/manual/packages/psi4/1.3.2/intel-19.0.5/share/psi4/basis/cc-pvtz.gbs 
    atoms 2    entry O          line   262 file /usr/local/pace-apps/manual/packages/psi4/1.3.2/intel-19.0.5/share/psi4/basis/cc-pvtz.gbs 


         ---------------------------------------------------------
                                   SCF
               by Justin Turney, Rob Parrish, Andy Simmonett
                          and Daniel G. A. Smith
                              RHF Reference
                        1 Threads,   9536 MiB Core
         ---------------------------------------------------------

  ==> Geometry <==

    Molecular point group: c2v
    Full point group: C2v

    Geometry (in Angstrom), charge = 0, multiplicity = 1:

       Center              X                  Y                   Z               Mass       
    ------------   -----------------  -----------------  -----------------  -----------------
         H            0.000000000000     0.739320034992    -0.513788956451     1.007825032230
         O            0.000000000000     0.000000000000     0.064746750315    15.994914619570
         H            0.000000000000    -0.739320034992    -0.513788956451     1.007825032230

  Running in c2v symmetry.

  Rotational constants: A =     28.13626  B =     15.30088  C =      9.91109 [cm^-1]
  Rotational constants: A = 843503.96615  B = 458708.84218  C = 297127.10949 [MHz]
  Nuclear repulsion =    9.376910412487724

  Charge       = 0
  Multiplicity = 1
  Electrons    = 10
  Nalpha       = 5
  Nbeta        = 5

  ==> Algorithm <==

  SCF Algorithm Type is DF.
  DIIS enabled.
  MOM disabled.
  Fractional occupation disabled.
  Guess Type is READ.
  Energy threshold   = 1.00e-08
  Density threshold  = 1.00e-08
  Integral threshold = 0.00e+00

  ==> Primary Basis <==

  Basis Set: CC-PVTZ
    Blend: CC-PVTZ
    Number of shells: 22
    Number of basis function: 58
    Number of Cartesian functions: 65
    Spherical Harmonics?: true
    Max angular momentum: 3

   => Loading Basis Set <=

    Name: (CC-PVTZ AUX)
    Role: JKFIT
    Keyword: DF_BASIS_SCF
    atoms 1, 3 entry H          line    51 file /usr/local/pace-apps/manual/packages/psi4/1.3.2/intel-19.0.5/share/psi4/basis/cc-pvtz-jkfit.gbs 
    atoms 2    entry O          line   229 file /usr/local/pace-apps/manual/packages/psi4/1.3.2/intel-19.0.5/share/psi4/basis/cc-pvtz-jkfit.gbs 

   => Loading Basis Set <=

    Name: CC-PVTZ
    Role: ORBITAL
    Keyword: BASIS
    atoms 1, 3 entry H          line    23 file /usr/local/pace-apps/manual/packages/psi4/1.3.2/intel-19.0.5/share/psi4/basis/cc-pvtz.gbs 
    atoms 2    entry O          line   262 file /usr/local/pace-apps/manual/packages/psi4/1.3.2/intel-19.0.5/share/psi4/basis/cc-pvtz.gbs 

  Reading orbitals from file 180, no projection.

  ==> Pre-Iterations <==

   -------------------------------------------------------
    Irrep   Nso     Nmo     Nalpha   Nbeta   Ndocc  Nsocc
   -------------------------------------------------------
     A1        23      23       0       0       0       0
     A2         7       7       0       0       0       0
     B1        11      11       0       0       0       0
     B2        17      17       0       0       0       0
   -------------------------------------------------------
    Total      58      58       5       5       5       0
   -------------------------------------------------------

  ==> Integral Setup <==

  DFHelper Memory: AOs need 0.004 GiB; user supplied 6.985 GiB. Using in-core AOs.

  ==> MemDFJK: Density-Fitted J/K Matrices <==

    J tasked:                   Yes
    K tasked:                   Yes
    wK tasked:                   No
    OpenMP threads:               1
    Memory [MiB]:              7152
    Algorithm:                 Core
    Schwarz Cutoff:           1E-12
    Mask sparsity (%):       0.0000
    Fitting Condition:        1E-10

   => Auxiliary Basis Set <=

  Basis Set: (CC-PVTZ AUX)
    Blend: CC-PVTZ-JKFIT
    Number of shells: 45
    Number of basis function: 139
    Number of Cartesian functions: 166
    Spherical Harmonics?: true
    Max angular momentum: 4

  Minimum eigenvalue in the overlap matrix is 2.3493251240E-03.
  Using Symmetric Orthogonalization.

  SCF Guess: Orbitals guess was supplied from a previous computation.

  ==> Iterations <==

                           Total Energy        Delta E     RMS |[F,P]|

   @DF-RHF iter   0:   -76.13254153849236   -7.61325e+01   5.32015e-03 
   @DF-RHF iter   1:   -76.05731786226526    7.52237e-02   7.64310e-04 DIIS
   @DF-RHF iter   2:   -76.05758548413363   -2.67622e-04   3.62765e-04 DIIS
   @DF-RHF iter   3:   -76.05762457850071   -3.90944e-05   8.29261e-05 DIIS
   @DF-RHF iter   4:   -76.05762982257789   -5.24408e-06   2.81334e-05 DIIS
   @DF-RHF iter   5:   -76.05763068267051   -8.60093e-07   6.15161e-06 DIIS
   @DF-RHF iter   6:   -76.05763073361204   -5.09415e-08   1.03813e-06 DIIS
   @DF-RHF iter   7:   -76.05763073474620   -1.13415e-09   1.29054e-07 DIIS
   @DF-RHF iter   8:   -76.05763073476282   -1.66267e-11   2.48839e-08 DIIS
   @DF-RHF iter   9:   -76.05763073476344   -6.11067e-13   3.02548e-09 DIIS
  Energy and wave function converged.


  ==> Post-Iterations <==

    Orbital Energies [Eh]
    ---------------------

    Doubly Occupied:                                                      

       1A1   -20.551702     2A1    -1.355942     1B2    -0.718854  
       3A1    -0.582428     1B1    -0.506221  

    Virtual:                                                              

       4A1     0.144084     2B2     0.205808     3B2     0.550855  
       5A1     0.615264     6A1     0.665150     2B1     0.787123  
       7A1     0.801381     4B2     0.806449     1A2     0.866382  
       3B1     0.955357     8A1     1.119955     5B2     1.209866  
       6B2     1.542513     9A1     1.596753     7B2     2.026603  
       4B1     2.047791     2A2     2.072065    10A1     2.177733  
      11A1     2.229179    12A1     2.598410     8B2     2.981845  
       5B1     3.350381    13A1     3.498945     3A2     3.601090  
       9B2     3.687237     6B1     3.815481    14A1     3.893167  
      10B2     3.899502     4A2     3.978252     7B1     4.022197  
      11B2     4.082644    15A1     4.216686     5A2     4.341180  
      16A1     4.408893    12B2     4.642850     8B1     4.701462  
      13B2     4.909745    17A1     5.234731    18A1     5.267031  
      14B2     5.543772     9B1     6.097458    19A1     6.653406  
      10B1     6.971666     6A2     6.971767    11B1     7.036002  
      20A1     7.072448    15B2     7.119388    21A1     7.202189  
       7A2     7.293463    22A1     7.475342    16B2     7.852376  
      17B2     8.382472    23A1    13.187011  

    Final Occupation by Irrep:
             A1    A2    B1    B2 
    DOCC [     3,    0,    1,    1 ]

  @DF-RHF Final Energy:   -76.05763073476344

   => Energetics <=

    Nuclear Repulsion Energy =              9.3769104124877245
    One-Electron Energy =                -123.4387883975939104
    Two-Electron Energy =                  38.0042472503427433
    Total Energy =                        -76.0576307347634355

Computation Completed


Properties will be evaluated at   0.000000,   0.000000,   0.000000 [a0]

Properties computed using the SCF density matrix

  Nuclear Dipole Moment: [e a0]
     X:     0.0000      Y:     0.0000      Z:    -0.9630

  Electronic Dipole Moment: [e a0]
     X:     0.0000      Y:     0.0000      Z:     0.1685

  Dipole Moment: [e a0]
     X:     0.0000      Y:     0.0000      Z:    -0.7945     Total:     0.7945

  Dipole Moment: [D]
     X:     0.0000      Y:     0.0000      Z:    -2.0194     Total:     2.0194


*** tstop() called on atl1-1-02-012-5-l.pace.gatech.edu at Tue May 10 16:33:48 2022
Module time:
	user time   =       0.24 seconds =       0.00 minutes
	system time =       0.00 seconds =       0.00 minutes
	total time  =          0 seconds =       0.00 minutes
Total time:
	user time   =       0.86 seconds =       0.01 minutes
	system time =       0.04 seconds =       0.00 minutes
	total time  =          1 seconds =       0.02 minutes

*** tstart() called on atl1-1-02-012-5-l.pace.gatech.edu
*** at Tue May 10 16:33:48 2022


         ------------------------------------------------------------
                                   SCF GRAD                          
                          Rob Parrish, Justin Turney,                
                       Andy Simmonett, and Alex Sokolov              
         ------------------------------------------------------------

  ==> Geometry <==

    Molecular point group: c2v
    Full point group: C2v

    Geometry (in Angstrom), charge = 0, multiplicity = 1:

       Center              X                  Y                   Z               Mass       
    ------------   -----------------  -----------------  -----------------  -----------------
         H            0.000000000000     0.739320034992    -0.513788956451     1.007825032230
         O            0.000000000000     0.000000000000     0.064746750315    15.994914619570
         H            0.000000000000    -0.739320034992    -0.513788956451     1.007825032230

  Nuclear repulsion =    9.376910412487735

  ==> Basis Set <==

  Basis Set: CC-PVTZ
    Blend: CC-PVTZ
    Number of shells: 22
    Number of basis function: 58
    Number of Cartesian functions: 65
    Spherical Harmonics?: true
    Max angular momentum: 3

  ==> DFJKGrad: Density-Fitted SCF Gradients <==

    Gradient:                    1
    J tasked:                  Yes
    K tasked:                  Yes
    wK tasked:                  No
    OpenMP threads:              1
    Integrals threads:           1
    Memory [MiB]:             7152
    Schwarz Cutoff:          0E+00
    Fitting Condition:       1E-10

   => Auxiliary Basis Set <=

  Basis Set: (CC-PVTZ AUX)
    Blend: CC-PVTZ-JKFIT
    Number of shells: 45
    Number of basis function: 139
    Number of Cartesian functions: 166
    Spherical Harmonics?: true
    Max angular momentum: 4


  -Total Gradient:
     Atom            X                  Y                   Z
    ------   -----------------  -----------------  -----------------
       1        0.000000000000    -0.004911536393    -0.000938606028
       2       -0.000000000000     0.000000000000     0.001877212056
       3       -0.000000000000     0.004911536393    -0.000938606028


*** tstop() called on atl1-1-02-012-5-l.pace.gatech.edu at Tue May 10 16:33:48 2022
Module time:
	user time   =       0.21 seconds =       0.00 minutes
	system time =       0.01 seconds =       0.00 minutes
	total time  =          0 seconds =       0.00 minutes
Total time:
	user time   =       1.07 seconds =       0.02 minutes
	system time =       0.05 seconds =       0.00 minutes
	total time  =          1 seconds =       0.02 minutes

			-----------------------------------------
			 OPTKING 2.0: for geometry optimizations 
			  - R.A. King,  Bethel University        
			-----------------------------------------

	Previous internal coordinate definitions found.
	---Fragment 1 Geometry and Gradient---
	 H           0.0000000000        1.3971123852       -0.9709204140
	 O           0.0000000000        0.0000000000        0.1223536256
	 H           0.0000000000       -1.3971123852       -0.9709204140
	             0.0000000000       -0.0049115364       -0.0009386060
	            -0.0000000000        0.0000000000        0.0018772121
	            -0.0000000000        0.0049115364       -0.0009386060

	---Fragment 1 Intrafragment Coordinates---
	 - Coordinate -           - BOHR/RAD -       - ANG/DEG -
	 R(1,2)           =         1.774027	       0.938775
	 R(2,3)           =         1.774027	       0.938775
	 B(1,2,3)         =         1.813605	     103.911931

	Current energy   :       -76.0576307348

	Energy change for the previous step:
		Projected    :        -0.0089345893
		Actual       :        -0.0066445308

	Performing BFGS update.
	Previous computed or guess Hessian on step 1.
	Steps to be used in Hessian update: 1
	Taking RFO optimization step.
	Going to follow RFO solution 1.
	Using RFO vector 1.
	Norm of target step-size    0.03941
	Projected energy change by RFO approximation:        -0.0004095807

	Back-transformation to cartesian coordinates...
	Successfully converged to displaced geometry.

	--- Internal Coordinate Step in ANG or DEG, aJ/ANG or AJ/DEG ---
	 ---------------------------------------------------------------------------
	   Coordinate                Previous        Force       Change         New 
	   ----------                --------       ------       ------       ------
	    1 R(1,2)          =      0.938775     0.027102     0.002205     0.940979
	    2 R(2,3)          =      0.938775     0.027102     0.002205     0.940979
	    3 B(1,2,3)        =    103.911931     0.000508     2.232676   106.144607
	 ---------------------------------------------------------------------------
	Successfully symmetrized geometry.

  ==> Convergence Check <==

  Measures of convergence in internal coordinates in au.
  Criteria marked as inactive (o), active & met (*), and active & unmet ( ).
  ---------------------------------------------------------------------------------------------
   Step     Total Energy     Delta E     MAX Force     RMS Force      MAX Disp      RMS Disp   
  ---------------------------------------------------------------------------------------------
    Convergence Criteria    1.00e-06 *    3.00e-04 *             o    1.20e-03 *             o
  ---------------------------------------------------------------------------------------------
      2     -76.05763073   -6.64e-03      6.68e-03      4.70e-03 o    3.90e-02      2.28e-02 o  ~
  ---------------------------------------------------------------------------------------------

	Writing optimization data to binary file.
	Structure for next step:
	Cartesian Geometry (in Angstrom)
	    H     0.0000000000   0.7522133748  -0.5093925818
	    O     0.0000000000   0.0000000000   0.0559540048
	    H     0.0000000000  -0.7522133748  -0.5093925818
			--------------------------
			 OPTKING Finished Execution 
			--------------------------

    Structure for next step:
    Molecular point group: c2v
    Full point group: C2v

    Geometry (in Angstrom), charge = 0, multiplicity = 1:

    H       
    O             1          OH
    H             2          OH      1         HOH

    HOH       =  106.1446065940
    OH        =    0.9409791342

gradient() will perform analytic gradient computation.

*** tstart() called on atl1-1-02-012-5-l.pace.gatech.edu
*** at Tue May 10 16:33:48 2022

   => Loading Basis Set <=

    Name: CC-PVTZ
    Role: ORBITAL
    Keyword: BASIS
    atoms 1, 3 entry H          line    23 file /usr/local/pace-apps/manual/packages/psi4/1.3.2/intel-19.0.5/share/psi4/basis/cc-pvtz.gbs 
    atoms 2    entry O          line   262 file /usr/local/pace-apps/manual/packages/psi4/1.3.2/intel-19.0.5/share/psi4/basis/cc-pvtz.gbs 


         ---------------------------------------------------------
                                   SCF
               by Justin Turney, Rob Parrish, Andy Simmonett
                          and Daniel G. A. Smith
                              RHF Reference
                        1 Threads,   9536 MiB Core
         ---------------------------------------------------------

  ==> Geometry <==

    Molecular point group: c2v
    Full point group: C2v

    Geometry (in Angstrom), charge = 0, multiplicity = 1:

       Center              X                  Y                   Z               Mass       
    ------------   -----------------  -----------------  -----------------  -----------------
         H            0.000000000000     0.752213377714    -0.502075896932     1.007825032230
         O            0.000000000000     0.000000000000     0.063270691847    15.994914619570
         H            0.000000000000    -0.752213377714    -0.502075896932     1.007825032230

  Running in c2v symmetry.

  Rotational constants: A =     29.46437  B =     14.78084  C =      9.84306 [cm^-1]
  Rotational constants: A = 883319.69485  B = 443118.57637  C = 295087.50928 [MHz]
  Nuclear repulsion =    9.349645912412591

  Charge       = 0
  Multiplicity = 1
  Electrons    = 10
  Nalpha       = 5
  Nbeta        = 5

  ==> Algorithm <==

  SCF Algorithm Type is DF.
  DIIS enabled.
  MOM disabled.
  Fractional occupation disabled.
  Guess Type is READ.
  Energy threshold   = 1.00e-08
  Density threshold  = 1.00e-08
  Integral threshold = 0.00e+00

  ==> Primary Basis <==

  Basis Set: CC-PVTZ
    Blend: CC-PVTZ
    Number of shells: 22
    Number of basis function: 58
    Number of Cartesian functions: 65
    Spherical Harmonics?: true
    Max angular momentum: 3

   => Loading Basis Set <=

    Name: (CC-PVTZ AUX)
    Role: JKFIT
    Keyword: DF_BASIS_SCF
    atoms 1, 3 entry H          line    51 file /usr/local/pace-apps/manual/packages/psi4/1.3.2/intel-19.0.5/share/psi4/basis/cc-pvtz-jkfit.gbs 
    atoms 2    entry O          line   229 file /usr/local/pace-apps/manual/packages/psi4/1.3.2/intel-19.0.5/share/psi4/basis/cc-pvtz-jkfit.gbs 

   => Loading Basis Set <=

    Name: CC-PVTZ
    Role: ORBITAL
    Keyword: BASIS
    atoms 1, 3 entry H          line    23 file /usr/local/pace-apps/manual/packages/psi4/1.3.2/intel-19.0.5/share/psi4/basis/cc-pvtz.gbs 
    atoms 2    entry O          line   262 file /usr/local/pace-apps/manual/packages/psi4/1.3.2/intel-19.0.5/share/psi4/basis/cc-pvtz.gbs 

  Reading orbitals from file 180, no projection.

  ==> Pre-Iterations <==

   -------------------------------------------------------
    Irrep   Nso     Nmo     Nalpha   Nbeta   Ndocc  Nsocc
   -------------------------------------------------------
     A1        23      23       0       0       0       0
     A2         7       7       0       0       0       0
     B1        11      11       0       0       0       0
     B2        17      17       0       0       0       0
   -------------------------------------------------------
    Total      58      58       5       5       5       0
   -------------------------------------------------------

  ==> Integral Setup <==

  DFHelper Memory: AOs need 0.004 GiB; user supplied 6.985 GiB. Using in-core AOs.

  ==> MemDFJK: Density-Fitted J/K Matrices <==

    J tasked:                   Yes
    K tasked:                   Yes
    wK tasked:                   No
    OpenMP threads:               1
    Memory [MiB]:              7152
    Algorithm:                 Core
    Schwarz Cutoff:           1E-12
    Mask sparsity (%):       0.0000
    Fitting Condition:        1E-10

   => Auxiliary Basis Set <=

  Basis Set: (CC-PVTZ AUX)
    Blend: CC-PVTZ-JKFIT
    Number of shells: 45
    Number of basis function: 139
    Number of Cartesian functions: 166
    Spherical Harmonics?: true
    Max angular momentum: 4

  Minimum eigenvalue in the overlap matrix is 2.3490841485E-03.
  Using Symmetric Orthogonalization.

  SCF Guess: Orbitals guess was supplied from a previous computation.

  ==> Iterations <==

                           Total Energy        Delta E     RMS |[F,P]|

   @DF-RHF iter   0:   -76.05706314098626   -7.60571e+01   4.43005e-04 
   @DF-RHF iter   1:   -76.05775844724587   -6.95306e-04   7.73169e-05 DIIS
   @DF-RHF iter   2:   -76.05776162881774   -3.18157e-06   2.55403e-05 DIIS
   @DF-RHF iter   3:   -76.05776204912667   -4.20309e-07   1.36048e-05 DIIS
   @DF-RHF iter   4:   -76.05776214549130   -9.63646e-08   2.63022e-06 DIIS
   @DF-RHF iter   5:   -76.05776215540487   -9.91358e-09   5.37250e-07 DIIS
   @DF-RHF iter   6:   -76.05776215581105   -4.06175e-10   8.66985e-08 DIIS
   @DF-RHF iter   7:   -76.05776215582073   -9.67759e-12   1.01890e-08 DIIS
   @DF-RHF iter   8:   -76.05776215582080   -7.10543e-14   1.95731e-09 DIIS
  Energy and wave function converged.


  ==> Post-Iterations <==

    Orbital Energies [Eh]
    ---------------------

    Doubly Occupied:                                                      

       1A1   -20.551024     2A1    -1.352989     1B2    -0.722004  
       3A1    -0.577534     1B1    -0.505304  

    Virtual:                                                              

       4A1     0.144309     2B2     0.205109     3B2     0.553774  
       5A1     0.605749     6A1     0.666956     2B1     0.787549  
       4B2     0.804991     7A1     0.812154     1A2     0.861176  
       3B1     0.964549     8A1     1.118892     5B2     1.202037  
       6B2     1.546299     9A1     1.588274     7B2     2.031800  
       4B1     2.036231     2A2     2.076096    10A1     2.171130  
      11A1     2.232451    12A1     2.610805     8B2     2.972775  
       5B1     3.372697    13A1     3.508900     3A2     3.581469  
       9B2     3.668587     6B1     3.816984    14A1     3.886679  
      10B2     3.900500     4A2     3.967510     7B1     4.026628  
      11B2     4.087936    15A1     4.212162     5A2     4.350117  
      16A1     4.429878    12B2     4.595468     8B1     4.703254  
      13B2     4.909896    17A1     5.209129    18A1     5.270370  
      14B2     5.547827     9B1     6.081977    19A1     6.613054  
      10B1     6.965702     6A2     6.974955    11B1     7.037954  
      20A1     7.062827    15B2     7.160188    21A1     7.175018  
       7A2     7.278428    22A1     7.488923    16B2     7.837176  
      17B2     8.354537    23A1    13.161579  

    Final Occupation by Irrep:
             A1    A2    B1    B2 
    DOCC [     3,    0,    1,    1 ]

  @DF-RHF Final Energy:   -76.05776215582080

   => Energetics <=

    Nuclear Repulsion Energy =              9.3496459124125906
    One-Electron Energy =                -123.3971054819954816
    Two-Electron Energy =                  37.9896974137620944
    Total Energy =                        -76.0577621558207966

Computation Completed


Properties will be evaluated at   0.000000,   0.000000,   0.000000 [a0]

Properties computed using the SCF density matrix

  Nuclear Dipole Moment: [e a0]
     X:     0.0000      Y:     0.0000      Z:    -0.9411

  Electronic Dipole Moment: [e a0]
     X:     0.0000      Y:     0.0000      Z:     0.1598

  Dipole Moment: [e a0]
     X:     0.0000      Y:     0.0000      Z:    -0.7813     Total:     0.7813

  Dipole Moment: [D]
     X:     0.0000      Y:     0.0000      Z:    -1.9858     Total:     1.9858


*** tstop() called on atl1-1-02-012-5-l.pace.gatech.edu at Tue May 10 16:33:49 2022
Module time:
	user time   =       0.23 seconds =       0.00 minutes
	system time =       0.01 seconds =       0.00 minutes
	total time  =          1 seconds =       0.02 minutes
Total time:
	user time   =       1.31 seconds =       0.02 minutes
	system time =       0.06 seconds =       0.00 minutes
	total time  =          2 seconds =       0.03 minutes

*** tstart() called on atl1-1-02-012-5-l.pace.gatech.edu
*** at Tue May 10 16:33:49 2022


         ------------------------------------------------------------
                                   SCF GRAD                          
                          Rob Parrish, Justin Turney,                
                       Andy Simmonett, and Alex Sokolov              
         ------------------------------------------------------------

  ==> Geometry <==

    Molecular point group: c2v
    Full point group: C2v

    Geometry (in Angstrom), charge = 0, multiplicity = 1:

       Center              X                  Y                   Z               Mass       
    ------------   -----------------  -----------------  -----------------  -----------------
         H            0.000000000000     0.752213377714    -0.502075896932     1.007825032230
         O            0.000000000000     0.000000000000     0.063270691847    15.994914619570
         H            0.000000000000    -0.752213377714    -0.502075896932     1.007825032230

  Nuclear repulsion =    9.349645912412605

  ==> Basis Set <==

  Basis Set: CC-PVTZ
    Blend: CC-PVTZ
    Number of shells: 22
    Number of basis function: 58
    Number of Cartesian functions: 65
    Spherical Harmonics?: true
    Max angular momentum: 3

  ==> DFJKGrad: Density-Fitted SCF Gradients <==

    Gradient:                    1
    J tasked:                  Yes
    K tasked:                  Yes
    wK tasked:                  No
    OpenMP threads:              1
    Integrals threads:           1
    Memory [MiB]:             7152
    Schwarz Cutoff:          0E+00
    Fitting Condition:       1E-10

   => Auxiliary Basis Set <=

  Basis Set: (CC-PVTZ AUX)
    Blend: CC-PVTZ-JKFIT
    Number of shells: 45
    Number of basis function: 139
    Number of Cartesian functions: 166
    Spherical Harmonics?: true
    Max angular momentum: 4


  -Total Gradient:
     Atom            X                  Y                   Z
    ------   -----------------  -----------------  -----------------
       1       -0.000000000000     0.000571529598    -0.000092445850
       2        0.000000000000     0.000000000000     0.000184891701
       3        0.000000000000    -0.000571529598    -0.000092445850


*** tstop() called on atl1-1-02-012-5-l.pace.gatech.edu at Tue May 10 16:33:49 2022
Module time:
	user time   =       0.19 seconds =       0.00 minutes
	system time =       0.02 seconds =       0.00 minutes
	total time  =          0 seconds =       0.00 minutes
Total time:
	user time   =       1.51 seconds =       0.03 minutes
	system time =       0.08 seconds =       0.00 minutes
	total time  =          2 seconds =       0.03 minutes

			-----------------------------------------
			 OPTKING 2.0: for geometry optimizations 
			  - R.A. King,  Bethel University        
			-----------------------------------------

	Previous internal coordinate definitions found.
	---Fragment 1 Geometry and Gradient---
	 H           0.0000000000        1.4214772718       -0.9487859394
	 O           0.0000000000        0.0000000000        0.1195642794
	 H           0.0000000000       -1.4214772718       -0.9487859394
	            -0.0000000000        0.0005715296       -0.0000924459
	             0.0000000000        0.0000000000        0.0001848917
	             0.0000000000       -0.0005715296       -0.0000924459

	---Fragment 1 Intrafragment Coordinates---
	 - Coordinate -           - BOHR/RAD -       - ANG/DEG -
	 R(1,2)           =         1.778193	       0.940979
	 R(2,3)           =         1.778193	       0.940979
	 B(1,2,3)         =         1.852573	     106.144607

	Current energy   :       -76.0577621558

	Energy change for the previous step:
		Projected    :        -0.0004095807
		Actual       :        -0.0001314211

	Performing BFGS update.
	Previous computed or guess Hessian on step 1.
	Steps to be used in Hessian update: 2 1
	Taking RFO optimization step.
	Going to follow RFO solution 1.
	Using RFO vector 1.
	Norm of target step-size    0.00276
	Projected energy change by RFO approximation:        -0.0000029300

	Back-transformation to cartesian coordinates...
	Successfully converged to displaced geometry.

	--- Internal Coordinate Step in ANG or DEG, aJ/ANG or AJ/DEG ---
	 ---------------------------------------------------------------------------
	   Coordinate                Previous        Force       Change         New 
	   ----------                --------       ------       ------       ------
	    1 R(1,2)          =      0.940979    -0.004222    -0.000458     0.940521
	    2 R(2,3)          =      0.940979    -0.004222    -0.000458     0.940521
	    3 B(1,2,3)        =    106.144607    -0.000036    -0.141720   106.002886
	 ---------------------------------------------------------------------------
	Successfully symmetrized geometry.

  ==> Convergence Check <==

  Measures of convergence in internal coordinates in au.
  Criteria marked as inactive (o), active & met (*), and active & unmet ( ).
  ---------------------------------------------------------------------------------------------
   Step     Total Energy     Delta E     MAX Force     RMS Force      MAX Disp      RMS Disp   
  ---------------------------------------------------------------------------------------------
    Convergence Criteria    1.00e-06 *    3.00e-04 *             o    1.20e-03 *             o
  ---------------------------------------------------------------------------------------------
      3     -76.05776216   -1.31e-04      5.12e-04      5.02e-04 o    2.47e-03      1.59e-03 o  ~
  ---------------------------------------------------------------------------------------------

	Writing optimization data to binary file.
	Structure for next step:
	Cartesian Geometry (in Angstrom)
	    H     0.0000000000   0.7511475018  -0.5022938922
	    O     0.0000000000   0.0000000000   0.0637066860
	    H     0.0000000000  -0.7511475018  -0.5022938922
			--------------------------
			 OPTKING Finished Execution 
			--------------------------

    Structure for next step:
    Molecular point group: c2v
    Full point group: C2v

    Geometry (in Angstrom), charge = 0, multiplicity = 1:

    H       
    O             1          OH
    H             2          OH      1         HOH

    HOH       =  106.0028864399
    OH        =    0.9405207233

gradient() will perform analytic gradient computation.

*** tstart() called on atl1-1-02-012-5-l.pace.gatech.edu
*** at Tue May 10 16:33:49 2022

   => Loading Basis Set <=

    Name: CC-PVTZ
    Role: ORBITAL
    Keyword: BASIS
    atoms 1, 3 entry H          line    23 file /usr/local/pace-apps/manual/packages/psi4/1.3.2/intel-19.0.5/share/psi4/basis/cc-pvtz.gbs 
    atoms 2    entry O          line   262 file /usr/local/pace-apps/manual/packages/psi4/1.3.2/intel-19.0.5/share/psi4/basis/cc-pvtz.gbs 


         ---------------------------------------------------------
                                   SCF
               by Justin Turney, Rob Parrish, Andy Simmonett
                          and Daniel G. A. Smith
                              RHF Reference
                        1 Threads,   9536 MiB Core
         ---------------------------------------------------------

  ==> Geometry <==

    Molecular point group: c2v
    Full point group: C2v

    Geometry (in Angstrom), charge = 0, multiplicity = 1:

       Center              X                  Y                   Z               Mass       
    ------------   -----------------  -----------------  -----------------  -----------------
         H            0.000000000000     0.751147504750    -0.502656697194     1.007825032230
         O            0.000000000000     0.000000000000     0.063343883240    15.994914619570
         H            0.000000000000    -0.751147504750    -0.502656697194     1.007825032230

  Running in c2v symmetry.

  Rotational constants: A =     29.39632  B =     14.82282  C =      9.85402 [cm^-1]
  Rotational constants: A = 881279.59106  B = 444377.03282  C = 295416.17543 [MHz]
  Nuclear repulsion =    9.354530625465936

  Charge       = 0
  Multiplicity = 1
  Electrons    = 10
  Nalpha       = 5
  Nbeta        = 5

  ==> Algorithm <==

  SCF Algorithm Type is DF.
  DIIS enabled.
  MOM disabled.
  Fractional occupation disabled.
  Guess Type is READ.
  Energy threshold   = 1.00e-08
  Density threshold  = 1.00e-08
  Integral threshold = 0.00e+00

  ==> Primary Basis <==

  Basis Set: CC-PVTZ
    Blend: CC-PVTZ
    Number of shells: 22
    Number of basis function: 58
    Number of Cartesian functions: 65
    Spherical Harmonics?: true
    Max angular momentum: 3

   => Loading Basis Set <=

    Name: (CC-PVTZ AUX)
    Role: JKFIT
    Keyword: DF_BASIS_SCF
    atoms 1, 3 entry H          line    51 file /usr/local/pace-apps/manual/packages/psi4/1.3.2/intel-19.0.5/share/psi4/basis/cc-pvtz-jkfit.gbs 
    atoms 2    entry O          line   229 file /usr/local/pace-apps/manual/packages/psi4/1.3.2/intel-19.0.5/share/psi4/basis/cc-pvtz-jkfit.gbs 

   => Loading Basis Set <=

    Name: CC-PVTZ
    Role: ORBITAL
    Keyword: BASIS
    atoms 1, 3 entry H          line    23 file /usr/local/pace-apps/manual/packages/psi4/1.3.2/intel-19.0.5/share/psi4/basis/cc-pvtz.gbs 
    atoms 2    entry O          line   262 file /usr/local/pace-apps/manual/packages/psi4/1.3.2/intel-19.0.5/share/psi4/basis/cc-pvtz.gbs 

  Reading orbitals from file 180, no projection.

  ==> Pre-Iterations <==

   -------------------------------------------------------
    Irrep   Nso     Nmo     Nalpha   Nbeta   Ndocc  Nsocc
   -------------------------------------------------------
     A1        23      23       0       0       0       0
     A2         7       7       0       0       0       0
     B1        11      11       0       0       0       0
     B2        17      17       0       0       0       0
   -------------------------------------------------------
    Total      58      58       5       5       5       0
   -------------------------------------------------------

  ==> Integral Setup <==

  DFHelper Memory: AOs need 0.004 GiB; user supplied 6.985 GiB. Using in-core AOs.

  ==> MemDFJK: Density-Fitted J/K Matrices <==

    J tasked:                   Yes
    K tasked:                   Yes
    wK tasked:                   No
    OpenMP threads:               1
    Memory [MiB]:              7152
    Algorithm:                 Core
    Schwarz Cutoff:           1E-12
    Mask sparsity (%):       0.0000
    Fitting Condition:        1E-10

   => Auxiliary Basis Set <=

  Basis Set: (CC-PVTZ AUX)
    Blend: CC-PVTZ-JKFIT
    Number of shells: 45
    Number of basis function: 139
    Number of Cartesian functions: 166
    Spherical Harmonics?: true
    Max angular momentum: 4

  Minimum eigenvalue in the overlap matrix is 2.3467229844E-03.
  Using Symmetric Orthogonalization.

  SCF Guess: Orbitals guess was supplied from a previous computation.

  ==> Iterations <==

                           Total Energy        Delta E     RMS |[F,P]|

   @DF-RHF iter   0:   -76.05820320782472   -7.60582e+01   4.46377e-05 
   @DF-RHF iter   1:   -76.05776307770468    4.40130e-04   7.22486e-06 DIIS
   @DF-RHF iter   2:   -76.05776309849027   -2.07856e-08   3.18726e-06 DIIS
   @DF-RHF iter   3:   -76.05776310168633   -3.19606e-09   8.87776e-07 DIIS
   @DF-RHF iter   4:   -76.05776310212359   -4.37254e-10   1.92659e-07 DIIS
   @DF-RHF iter   5:   -76.05776310215997   -3.63798e-11   4.81295e-08 DIIS
   @DF-RHF iter   6:   -76.05776310216275   -2.78533e-12   8.44694e-09 DIIS
  Energy and wave function converged.


  ==> Post-Iterations <==

    Orbital Energies [Eh]
    ---------------------

    Doubly Occupied:                                                      

       1A1   -20.551011     2A1    -1.353346     1B2    -0.721990  
       3A1    -0.577903     1B1    -0.505391  

    Virtual:                                                              

       4A1     0.144328     2B2     0.205179     3B2     0.553711  
       5A1     0.606541     6A1     0.666782     2B1     0.787512  
       4B2     0.805100     7A1     0.811496     1A2     0.861570  
       3B1     0.964011     8A1     1.118748     5B2     1.202721  
       6B2     1.546346     9A1     1.589307     7B2     2.031028  
       4B1     2.037108     2A2     2.075954    10A1     2.171727  
      11A1     2.232197    12A1     2.610019     8B2     2.973633  
       5B1     3.371324    13A1     3.508486     3A2     3.582925  
       9B2     3.670249     6B1     3.817158    14A1     3.887107  
      10B2     3.900732     4A2     3.968399     7B1     4.026393  
      11B2     4.087690    15A1     4.212861     5A2     4.349989  
      16A1     4.429009    12B2     4.599229     8B1     4.703444  
      13B2     4.910655    17A1     5.212062    18A1     5.270349  
      14B2     5.547769     9B1     6.083732    19A1     6.617022  
      10B1     6.966271     6A2     6.975058    11B1     7.038731  
      20A1     7.064152    15B2     7.158775    21A1     7.177087  
       7A2     7.280397    22A1     7.488246    16B2     7.839096  
      17B2     8.357737    23A1    13.168613  

    Final Occupation by Irrep:
             A1    A2    B1    B2 
    DOCC [     3,    0,    1,    1 ]

  @DF-RHF Final Energy:   -76.05776310216275

   => Energetics <=

    Nuclear Repulsion Energy =              9.3545306254659355
    One-Electron Energy =                -123.4053046274509313
    Two-Electron Energy =                  37.9930108998222451
    Total Energy =                        -76.0577631021627383

Computation Completed


Properties will be evaluated at   0.000000,   0.000000,   0.000000 [a0]

Properties computed using the SCF density matrix

  Nuclear Dipole Moment: [e a0]
     X:     0.0000      Y:     0.0000      Z:    -0.9421

  Electronic Dipole Moment: [e a0]
     X:     0.0000      Y:     0.0000      Z:     0.1601

  Dipole Moment: [e a0]
     X:     0.0000      Y:     0.0000      Z:    -0.7820     Total:     0.7820

  Dipole Moment: [D]
     X:     0.0000      Y:     0.0000      Z:    -1.9877     Total:     1.9877


*** tstop() called on atl1-1-02-012-5-l.pace.gatech.edu at Tue May 10 16:33:49 2022
Module time:
	user time   =       0.22 seconds =       0.00 minutes
	system time =       0.02 seconds =       0.00 minutes
	total time  =          0 seconds =       0.00 minutes
Total time:
	user time   =       1.74 seconds =       0.03 minutes
	system time =       0.10 seconds =       0.00 minutes
	total time  =          2 seconds =       0.03 minutes

*** tstart() called on atl1-1-02-012-5-l.pace.gatech.edu
*** at Tue May 10 16:33:49 2022


         ------------------------------------------------------------
                                   SCF GRAD                          
                          Rob Parrish, Justin Turney,                
                       Andy Simmonett, and Alex Sokolov              
         ------------------------------------------------------------

  ==> Geometry <==

    Molecular point group: c2v
    Full point group: C2v

    Geometry (in Angstrom), charge = 0, multiplicity = 1:

       Center              X                  Y                   Z               Mass       
    ------------   -----------------  -----------------  -----------------  -----------------
         H            0.000000000000     0.751147504750    -0.502656697194     1.007825032230
         O            0.000000000000     0.000000000000     0.063343883240    15.994914619570
         H            0.000000000000    -0.751147504750    -0.502656697194     1.007825032230

  Nuclear repulsion =    9.354530625465939

  ==> Basis Set <==

  Basis Set: CC-PVTZ
    Blend: CC-PVTZ
    Number of shells: 22
    Number of basis function: 58
    Number of Cartesian functions: 65
    Spherical Harmonics?: true
    Max angular momentum: 3

  ==> DFJKGrad: Density-Fitted SCF Gradients <==

    Gradient:                    1
    J tasked:                  Yes
    K tasked:                  Yes
    wK tasked:                  No
    OpenMP threads:              1
    Integrals threads:           1
    Memory [MiB]:             7152
    Schwarz Cutoff:          0E+00
    Fitting Condition:       1E-10

   => Auxiliary Basis Set <=

  Basis Set: (CC-PVTZ AUX)
    Blend: CC-PVTZ-JKFIT
    Number of shells: 45
    Number of basis function: 139
    Number of Cartesian functions: 166
    Spherical Harmonics?: true
    Max angular momentum: 4


  -Total Gradient:
     Atom            X                  Y                   Z
    ------   -----------------  -----------------  -----------------
       1        0.000000000000    -0.000081371977     0.000059280423
       2        0.000000000000     0.000000000000    -0.000118560845
       3       -0.000000000000     0.000081371977     0.000059280423


*** tstop() called on atl1-1-02-012-5-l.pace.gatech.edu at Tue May 10 16:33:49 2022
Module time:
	user time   =       0.20 seconds =       0.00 minutes
	system time =       0.02 seconds =       0.00 minutes
	total time  =          0 seconds =       0.00 minutes
Total time:
	user time   =       1.94 seconds =       0.03 minutes
	system time =       0.12 seconds =       0.00 minutes
	total time  =          2 seconds =       0.03 minutes

			-----------------------------------------
			 OPTKING 2.0: for geometry optimizations 
			  - R.A. King,  Bethel University        
			-----------------------------------------

	Previous internal coordinate definitions found.
	---Fragment 1 Geometry and Gradient---
	 H           0.0000000000        1.4194630638       -0.9498834928
	 O           0.0000000000        0.0000000000        0.1197025910
	 H           0.0000000000       -1.4194630638       -0.9498834928
	             0.0000000000       -0.0000813720        0.0000592804
	             0.0000000000        0.0000000000       -0.0001185608
	            -0.0000000000        0.0000813720        0.0000592804

	---Fragment 1 Intrafragment Coordinates---
	 - Coordinate -           - BOHR/RAD -       - ANG/DEG -
	 R(1,2)           =         1.777327	       0.940521
	 R(2,3)           =         1.777327	       0.940521
	 B(1,2,3)         =         1.850099	     106.002886

	Current energy   :       -76.0577631022

	Energy change for the previous step:
		Projected    :        -0.0000029300
		Actual       :        -0.0000009463

	Performing BFGS update.
	Previous computed or guess Hessian on step 1.
	Steps to be used in Hessian update: 3 2
	Taking RFO optimization step.
	Going to follow RFO solution 1.
	Using RFO vector 1.
	Norm of target step-size    0.00026
	Projected energy change by RFO approximation:        -0.0000000367

	Back-transformation to cartesian coordinates...
	Successfully converged to displaced geometry.

	--- Internal Coordinate Step in ANG or DEG, aJ/ANG or AJ/DEG ---
	 ---------------------------------------------------------------------------
	   Coordinate                Previous        Force       Change         New 
	   ----------                --------       ------       ------       ------
	    1 R(1,2)          =      0.940521     0.000829     0.000094     0.940615
	    2 R(2,3)          =      0.940521     0.000829     0.000094     0.940615
	    3 B(1,2,3)        =    106.002886     0.000000    -0.003167   105.999719
	 ---------------------------------------------------------------------------
	Successfully symmetrized geometry.

  ==> Convergence Check <==

  Measures of convergence in internal coordinates in au.
  Criteria marked as inactive (o), active & met (*), and active & unmet ( ).
  ---------------------------------------------------------------------------------------------
   Step     Total Energy     Delta E     MAX Force     RMS Force      MAX Disp      RMS Disp   
  ---------------------------------------------------------------------------------------------
    Convergence Criteria    1.00e-06 *    3.00e-04 *             o    1.20e-03 *             o
  ---------------------------------------------------------------------------------------------
      4     -76.05776310   -9.46e-07 *    1.01e-04 *    8.22e-05 o    1.79e-04 *    1.49e-04 o  ~
  ---------------------------------------------------------------------------------------------


  **** Optimization is complete! (in 4 steps) ****

  ==> Optimization Summary <==

  Measures of convergence in internal coordinates in au.
  --------------------------------------------------------------------------------------------------------------- ~
   Step         Total Energy             Delta E       MAX Force       RMS Force        MAX Disp        RMS Disp  ~
  --------------------------------------------------------------------------------------------------------------- ~
      1     -76.050986203918    -76.050986203918      0.05669506      0.04630269      0.11569931      0.09465376  ~
      2     -76.057630734763     -0.006644530845      0.00668099      0.00470030      0.03896755      0.02275362  ~
      3     -76.057762155821     -0.000131421057      0.00051242      0.00050159      0.00247348      0.00159363  ~
      4     -76.057763102163     -0.000000946342      0.00010066      0.00008221      0.00017857      0.00014926  ~
  --------------------------------------------------------------------------------------------------------------- ~

	Writing optimization data to binary file.
	Final energy is    -76.0577631021628
	Final (previous) structure:
	Cartesian Geometry (in Angstrom)
	    H     0.0000000000   0.7511475018  -0.5026566952
	    O     0.0000000000   0.0000000000   0.0633438830
	    H     0.0000000000  -0.7511475018  -0.5026566952
	Saving final (previous) structure.
			--------------------------
			 OPTKING Finished Execution 
			--------------------------

    Final optimized geometry and variables:
    Molecular point group: c2v
    Full point group: C2v

    Geometry (in Angstrom), charge = 0, multiplicity = 1:

    H       
    O             1          OH
    H             2          OH      1         HOH

    HOH       =  106.0028864399
    OH        =    0.9405207233

	Removing binary optimization data file.
	Cleaning optimization helper files.
gradient() will perform analytic gradient computation.

*** tstart() called on atl1-1-02-012-5-l.pace.gatech.edu
*** at Tue May 10 16:33:50 2022

   => Loading Basis Set <=

    Name: CC-PVTZ
    Role: ORBITAL
    Keyword: BASIS
    atoms 1, 3 entry H          line    23 file /usr/local/pace-apps/manual/packages/psi4/1.3.2/intel-19.0.5/share/psi4/basis/cc-pvtz.gbs 
    atoms 2    entry O          line   262 file /usr/local/pace-apps/manual/packages/psi4/1.3.2/intel-19.0.5/share/psi4/basis/cc-pvtz.gbs 


         ---------------------------------------------------------
                                   SCF
               by Justin Turney, Rob Parrish, Andy Simmonett
                          and Daniel G. A. Smith
                              RHF Reference
                        1 Threads,   9536 MiB Core
         ---------------------------------------------------------

  ==> Geometry <==

    Molecular point group: c2v
    Full point group: C2v

    Geometry (in Angstrom), charge = 0, multiplicity = 1:

       Center              X                  Y                   Z               Mass       
    ------------   -----------------  -----------------  -----------------  -----------------
         H            0.000000000000     0.751147504750    -0.502656697194     1.007825032230
         O            0.000000000000     0.000000000000     0.063343883240    15.994914619570
         H            0.000000000000    -0.751147504750    -0.502656697194     1.007825032230

  Running in c2v symmetry.

  Rotational constants: A =     29.39632  B =     14.82282  C =      9.85402 [cm^-1]
  Rotational constants: A = 881279.59106  B = 444377.03282  C = 295416.17543 [MHz]
  Nuclear repulsion =    9.354530625465959

  Charge       = 0
  Multiplicity = 1
  Electrons    = 10
  Nalpha       = 5
  Nbeta        = 5

  ==> Algorithm <==

  SCF Algorithm Type is DF.
  DIIS enabled.
  MOM disabled.
  Fractional occupation disabled.
  Guess Type is SAD.
  Energy threshold   = 1.00e-08
  Density threshold  = 1.00e-08
  Integral threshold = 0.00e+00

  ==> Primary Basis <==

  Basis Set: CC-PVTZ
    Blend: CC-PVTZ
    Number of shells: 22
    Number of basis function: 58
    Number of Cartesian functions: 65
    Spherical Harmonics?: true
    Max angular momentum: 3

   => Loading Basis Set <=

    Name: (CC-PVTZ AUX)
    Role: JKFIT
    Keyword: DF_BASIS_SCF
    atoms 1, 3 entry H          line    51 file /usr/local/pace-apps/manual/packages/psi4/1.3.2/intel-19.0.5/share/psi4/basis/cc-pvtz-jkfit.gbs 
    atoms 2    entry O          line   229 file /usr/local/pace-apps/manual/packages/psi4/1.3.2/intel-19.0.5/share/psi4/basis/cc-pvtz-jkfit.gbs 

  ==> Pre-Iterations <==

   -------------------------------------------------------
    Irrep   Nso     Nmo     Nalpha   Nbeta   Ndocc  Nsocc
   -------------------------------------------------------
     A1        23      23       0       0       0       0
     A2         7       7       0       0       0       0
     B1        11      11       0       0       0       0
     B2        17      17       0       0       0       0
   -------------------------------------------------------
    Total      58      58       5       5       5       0
   -------------------------------------------------------

  ==> Integral Setup <==

  DFHelper Memory: AOs need 0.004 GiB; user supplied 6.985 GiB. Using in-core AOs.

  ==> MemDFJK: Density-Fitted J/K Matrices <==

    J tasked:                   Yes
    K tasked:                   Yes
    wK tasked:                   No
    OpenMP threads:               1
    Memory [MiB]:              7152
    Algorithm:                 Core
    Schwarz Cutoff:           1E-12
    Mask sparsity (%):       0.0000
    Fitting Condition:        1E-10

   => Auxiliary Basis Set <=

  Basis Set: (CC-PVTZ AUX)
    Blend: CC-PVTZ-JKFIT
    Number of shells: 45
    Number of basis function: 139
    Number of Cartesian functions: 166
    Spherical Harmonics?: true
    Max angular momentum: 4

  Minimum eigenvalue in the overlap matrix is 2.3467229844E-03.
  Using Symmetric Orthogonalization.

  SCF Guess: Superposition of Atomic Densities via on-the-fly atomic UHF.

  ==> Iterations <==

                           Total Energy        Delta E     RMS |[F,P]|

   @DF-RHF iter SAD:   -75.51988358740422   -7.55199e+01   0.00000e+00 
   @DF-RHF iter   1:   -75.98028606579841   -4.60402e-01   1.44187e-02 DIIS
   @DF-RHF iter   2:   -76.03303631931993   -5.27503e-02   9.10893e-03 DIIS
   @DF-RHF iter   3:   -76.05737524331398   -2.43389e-02   6.75959e-04 DIIS
   @DF-RHF iter   4:   -76.05774063894884   -3.65396e-04   1.58804e-04 DIIS
   @DF-RHF iter   5:   -76.05776170659945   -2.10677e-05   3.27084e-05 DIIS
   @DF-RHF iter   6:   -76.05776304622292   -1.33962e-06   6.44211e-06 DIIS
   @DF-RHF iter   7:   -76.05776310084289   -5.46200e-08   1.08079e-06 DIIS
   @DF-RHF iter   8:   -76.05776310213218   -1.28929e-09   1.62669e-07 DIIS
   @DF-RHF iter   9:   -76.05776310216109   -2.89049e-11   4.41963e-08 DIIS
   @DF-RHF iter  10:   -76.05776310216319   -2.10321e-12   5.57777e-09 DIIS
  Energy and wave function converged.


  ==> Post-Iterations <==

    Orbital Energies [Eh]
    ---------------------

    Doubly Occupied:                                                      

       1A1   -20.551011     2A1    -1.353346     1B2    -0.721990  
       3A1    -0.577903     1B1    -0.505391  

    Virtual:                                                              

       4A1     0.144328     2B2     0.205179     3B2     0.553711  
       5A1     0.606541     6A1     0.666782     2B1     0.787512  
       4B2     0.805100     7A1     0.811496     1A2     0.861570  
       3B1     0.964011     8A1     1.118748     5B2     1.202721  
       6B2     1.546346     9A1     1.589307     7B2     2.031028  
       4B1     2.037108     2A2     2.075954    10A1     2.171727  
      11A1     2.232197    12A1     2.610019     8B2     2.973633  
       5B1     3.371324    13A1     3.508486     3A2     3.582925  
       9B2     3.670249     6B1     3.817158    14A1     3.887107  
      10B2     3.900732     4A2     3.968399     7B1     4.026393  
      11B2     4.087690    15A1     4.212861     5A2     4.349989  
      16A1     4.429009    12B2     4.599229     8B1     4.703444  
      13B2     4.910655    17A1     5.212062    18A1     5.270349  
      14B2     5.547769     9B1     6.083732    19A1     6.617022  
      10B1     6.966271     6A2     6.975058    11B1     7.038731  
      20A1     7.064152    15B2     7.158775    21A1     7.177087  
       7A2     7.280397    22A1     7.488246    16B2     7.839096  
      17B2     8.357737    23A1    13.168613  

    Final Occupation by Irrep:
             A1    A2    B1    B2 
    DOCC [     3,    0,    1,    1 ]

  @DF-RHF Final Energy:   -76.05776310216319

   => Energetics <=

    Nuclear Repulsion Energy =              9.3545306254659586
    One-Electron Energy =                -123.4053046706285528
    Two-Electron Energy =                  37.9930109429994118
    Total Energy =                        -76.0577631021631930

Computation Completed


Properties will be evaluated at   0.000000,   0.000000,   0.000000 [a0]

Properties computed using the SCF density matrix

  Nuclear Dipole Moment: [e a0]
     X:     0.0000      Y:     0.0000      Z:    -0.9421

  Electronic Dipole Moment: [e a0]
     X:     0.0000      Y:     0.0000      Z:     0.1601

  Dipole Moment: [e a0]
     X:     0.0000      Y:     0.0000      Z:    -0.7820     Total:     0.7820

  Dipole Moment: [D]
     X:     0.0000      Y:     0.0000      Z:    -1.9877     Total:     1.9877


*** tstop() called on atl1-1-02-012-5-l.pace.gatech.edu at Tue May 10 16:33:50 2022
Module time:
	user time   =       0.36 seconds =       0.01 minutes
	system time =       0.01 seconds =       0.00 minutes
	total time  =          0 seconds =       0.00 minutes
Total time:
	user time   =       2.31 seconds =       0.04 minutes
	system time =       0.13 seconds =       0.00 minutes
	total time  =          3 seconds =       0.05 minutes

*** tstart() called on atl1-1-02-012-5-l.pace.gatech.edu
*** at Tue May 10 16:33:50 2022


         ------------------------------------------------------------
                                   SCF GRAD                          
                          Rob Parrish, Justin Turney,                
                       Andy Simmonett, and Alex Sokolov              
         ------------------------------------------------------------

  ==> Geometry <==

    Molecular point group: c2v
    Full point group: C2v

    Geometry (in Angstrom), charge = 0, multiplicity = 1:

       Center              X                  Y                   Z               Mass       
    ------------   -----------------  -----------------  -----------------  -----------------
         H            0.000000000000     0.751147504750    -0.502656697194     1.007825032230
         O            0.000000000000     0.000000000000     0.063343883240    15.994914619570
         H            0.000000000000    -0.751147504750    -0.502656697194     1.007825032230

  Nuclear repulsion =    9.354530625465967

  ==> Basis Set <==

  Basis Set: CC-PVTZ
    Blend: CC-PVTZ
    Number of shells: 22
    Number of basis function: 58
    Number of Cartesian functions: 65
    Spherical Harmonics?: true
    Max angular momentum: 3

  ==> DFJKGrad: Density-Fitted SCF Gradients <==

    Gradient:                    1
    J tasked:                  Yes
    K tasked:                  Yes
    wK tasked:                  No
    OpenMP threads:              1
    Integrals threads:           1
    Memory [MiB]:             7152
    Schwarz Cutoff:          0E+00
    Fitting Condition:       1E-10

   => Auxiliary Basis Set <=

  Basis Set: (CC-PVTZ AUX)
    Blend: CC-PVTZ-JKFIT
    Number of shells: 45
    Number of basis function: 139
    Number of Cartesian functions: 166
    Spherical Harmonics?: true
    Max angular momentum: 4


  -Total Gradient:
     Atom            X                  Y                   Z
    ------   -----------------  -----------------  -----------------
       1        0.000000000000    -0.000081375608     0.000059282987
       2        0.000000000000     0.000000000000    -0.000118565973
       3       -0.000000000000     0.000081375608     0.000059282987


*** tstop() called on atl1-1-02-012-5-l.pace.gatech.edu at Tue May 10 16:33:50 2022
Module time:
	user time   =       0.20 seconds =       0.00 minutes
	system time =       0.02 seconds =       0.00 minutes
	total time  =          0 seconds =       0.00 minutes
Total time:
	user time   =       2.51 seconds =       0.04 minutes
	system time =       0.15 seconds =       0.00 minutes
	total time  =          3 seconds =       0.05 minutes

  Based on options and gradient (rms=6.18E-05), recommend projecting translations and projecting rotations.
hessian() will perform frequency computation by finite difference of analytic gradients.

         ----------------------------------------------------------
                                   FINDIF
                     R. A. King and Jonathon Misiewicz
         ---------------------------------------------------------

  Using finite-differences of gradients to determine vibrational frequencies and 
  normal modes.  Resulting frequencies are only valid at stationary points.
    Generating geometries for use with 3-point formula.
    Displacement size will be 5.00e-03.
    Number of atoms is 3.
    Number of irreps is 4.
    Number of SALCs is 3.
    Translations projected? 1. Rotations projected? 1.
    Index of SALCs per irrep:
     1 :  0  1 
     2 : 
     3 : 
     4 :  2 
    Number of SALCs per irrep:
     Irrep 1: 2
     Irrep 2: 0
     Irrep 3: 0
     Irrep 4: 1
    Number of geometries (including reference) is 6.
    Number of displacements per irrep:
      Irrep 1: 4
      Irrep 2: 0
      Irrep 3: 0
      Irrep 4: 1

  //>>>>>>>>>>>>>>>>>>>>>>>>>>>>>>>>>>>//
  //    Loading displacement 1 of 6    //
  //<<<<<<<<<<<<<<<<<<<<<<<<<<<<<<<<<<<//
gradient() will perform analytic gradient computation.

*** tstart() called on atl1-1-02-012-5-l.pace.gatech.edu
*** at Tue May 10 16:33:53 2022

   => Loading Basis Set <=

    Name: CC-PVTZ
    Role: ORBITAL
    Keyword: BASIS
    atoms 1, 3 entry H          line    23 file /usr/local/pace-apps/manual/packages/psi4/1.3.2/intel-19.0.5/share/psi4/basis/cc-pvtz.gbs 
    atoms 2    entry O          line   262 file /usr/local/pace-apps/manual/packages/psi4/1.3.2/intel-19.0.5/share/psi4/basis/cc-pvtz.gbs 


         ---------------------------------------------------------
                                   SCF
               by Justin Turney, Rob Parrish, Andy Simmonett
                          and Daniel G. A. Smith
                              RHF Reference
                        1 Threads,   9536 MiB Core
         ---------------------------------------------------------

  ==> Geometry <==

    Molecular point group: c2v
    Full point group: C2v

    Geometry (in Angstrom), charge = 0, multiplicity = 1:

       Center              X                  Y                   Z               Mass       
    ------------   -----------------  -----------------  -----------------  -----------------
         H            0.000000000000     0.751147504750    -0.502656697194     1.007825032230
         O            0.000000000000     0.000000000000     0.063343883240    15.994914619570
         H            0.000000000000    -0.751147504750    -0.502656697194     1.007825032230

  Running in c2v symmetry.

  Rotational constants: A =     29.39632  B =     14.82282  C =      9.85402 [cm^-1]
  Rotational constants: A = 881279.59106  B = 444377.03282  C = 295416.17543 [MHz]
  Nuclear repulsion =    9.354530625465967

  Charge       = 0
  Multiplicity = 1
  Electrons    = 10
  Nalpha       = 5
  Nbeta        = 5

  ==> Algorithm <==

  SCF Algorithm Type is DF.
  DIIS enabled.
  MOM disabled.
  Fractional occupation disabled.
  Guess Type is SAD.
  Energy threshold   = 1.00e-08
  Density threshold  = 1.00e-08
  Integral threshold = 0.00e+00

  ==> Primary Basis <==

  Basis Set: CC-PVTZ
    Blend: CC-PVTZ
    Number of shells: 22
    Number of basis function: 58
    Number of Cartesian functions: 65
    Spherical Harmonics?: true
    Max angular momentum: 3

   => Loading Basis Set <=

    Name: (CC-PVTZ AUX)
    Role: JKFIT
    Keyword: DF_BASIS_SCF
    atoms 1, 3 entry H          line    51 file /usr/local/pace-apps/manual/packages/psi4/1.3.2/intel-19.0.5/share/psi4/basis/cc-pvtz-jkfit.gbs 
    atoms 2    entry O          line   229 file /usr/local/pace-apps/manual/packages/psi4/1.3.2/intel-19.0.5/share/psi4/basis/cc-pvtz-jkfit.gbs 

  ==> Pre-Iterations <==

   -------------------------------------------------------
    Irrep   Nso     Nmo     Nalpha   Nbeta   Ndocc  Nsocc
   -------------------------------------------------------
     A1        23      23       0       0       0       0
     A2         7       7       0       0       0       0
     B1        11      11       0       0       0       0
     B2        17      17       0       0       0       0
   -------------------------------------------------------
    Total      58      58       5       5       5       0
   -------------------------------------------------------

  ==> Integral Setup <==

  DFHelper Memory: AOs need 0.004 GiB; user supplied 6.985 GiB. Using in-core AOs.

  ==> MemDFJK: Density-Fitted J/K Matrices <==

    J tasked:                   Yes
    K tasked:                   Yes
    wK tasked:                   No
    OpenMP threads:               1
    Memory [MiB]:              7152
    Algorithm:                 Core
    Schwarz Cutoff:           1E-12
    Mask sparsity (%):       0.0000
    Fitting Condition:        1E-10

   => Auxiliary Basis Set <=

  Basis Set: (CC-PVTZ AUX)
    Blend: CC-PVTZ-JKFIT
    Number of shells: 45
    Number of basis function: 139
    Number of Cartesian functions: 166
    Spherical Harmonics?: true
    Max angular momentum: 4

  Minimum eigenvalue in the overlap matrix is 2.3467229844E-03.
  Using Symmetric Orthogonalization.

  SCF Guess: Superposition of Atomic Densities via on-the-fly atomic UHF.

  ==> Iterations <==

                           Total Energy        Delta E     RMS |[F,P]|

   @DF-RHF iter SAD:   -75.51988358740427   -7.55199e+01   0.00000e+00 
   @DF-RHF iter   1:   -75.98028606579840   -4.60402e-01   1.44187e-02 DIIS
   @DF-RHF iter   2:   -76.03303631931973   -5.27503e-02   9.10893e-03 DIIS
   @DF-RHF iter   3:   -76.05737524331394   -2.43389e-02   6.75959e-04 DIIS
   @DF-RHF iter   4:   -76.05774063894881   -3.65396e-04   1.58804e-04 DIIS
   @DF-RHF iter   5:   -76.05776170659939   -2.10677e-05   3.27084e-05 DIIS
   @DF-RHF iter   6:   -76.05776304622282   -1.33962e-06   6.44211e-06 DIIS
   @DF-RHF iter   7:   -76.05776310084281   -5.46200e-08   1.08079e-06 DIIS
   @DF-RHF iter   8:   -76.05776310213207   -1.28927e-09   1.62669e-07 DIIS
   @DF-RHF iter   9:   -76.05776310216092   -2.88480e-11   4.41963e-08 DIIS
   @DF-RHF iter  10:   -76.05776310216307   -2.14584e-12   5.57777e-09 DIIS
  Energy and wave function converged.


  ==> Post-Iterations <==

    Orbital Energies [Eh]
    ---------------------

    Doubly Occupied:                                                      

       1A1   -20.551011     2A1    -1.353346     1B2    -0.721990  
       3A1    -0.577903     1B1    -0.505391  

    Virtual:                                                              

       4A1     0.144328     2B2     0.205179     3B2     0.553711  
       5A1     0.606541     6A1     0.666782     2B1     0.787512  
       4B2     0.805100     7A1     0.811496     1A2     0.861570  
       3B1     0.964011     8A1     1.118748     5B2     1.202721  
       6B2     1.546346     9A1     1.589307     7B2     2.031028  
       4B1     2.037108     2A2     2.075954    10A1     2.171727  
      11A1     2.232197    12A1     2.610019     8B2     2.973633  
       5B1     3.371324    13A1     3.508486     3A2     3.582925  
       9B2     3.670249     6B1     3.817158    14A1     3.887107  
      10B2     3.900732     4A2     3.968399     7B1     4.026393  
      11B2     4.087690    15A1     4.212861     5A2     4.349989  
      16A1     4.429009    12B2     4.599229     8B1     4.703444  
[...]
    Number of basis function: 58
    Number of Cartesian functions: 65
    Spherical Harmonics?: true
    Max angular momentum: 3

  ==> DFJKGrad: Density-Fitted SCF Gradients <==

    Gradient:                    1
    J tasked:                  Yes
    K tasked:                  Yes
    wK tasked:                  No
    OpenMP threads:              1
    Integrals threads:           1
    Memory [MiB]:             7152
    Schwarz Cutoff:          0E+00
    Fitting Condition:       1E-10

   => Auxiliary Basis Set <=

  Basis Set: (CC-PVTZ AUX)
    Blend: CC-PVTZ-JKFIT
    Number of shells: 45
    Number of basis function: 139
    Number of Cartesian functions: 166
    Spherical Harmonics?: true
    Max angular momentum: 4


  -Total Gradient:
     Atom            X                  Y                   Z
    ------   -----------------  -----------------  -----------------
       1        0.000000000000    -0.000973321922     0.001046629445
       2        0.000000000000     0.000000000000    -0.002093258890
       3       -0.000000000000     0.000973321922     0.001046629445


*** tstop() called on atl1-1-02-012-5-l.pace.gatech.edu at Tue May 10 16:33:57 2022
Module time:
	user time   =       0.20 seconds =       0.00 minutes
	system time =       0.01 seconds =       0.00 minutes
	total time  =          1 seconds =       0.02 minutes
Total time:
	user time   =       6.83 seconds =       0.11 minutes
	system time =       0.40 seconds =       0.01 minutes
	total time  =         10 seconds =       0.17 minutes

  //>>>>>>>>>>>>>>>>>>>>>>>>>>>>>>>>>>>//
  //    Loading displacement 6 of 6    //
  //<<<<<<<<<<<<<<<<<<<<<<<<<<<<<<<<<<<//
gradient() will perform analytic gradient computation.

*** tstart() called on atl1-1-02-012-5-l.pace.gatech.edu
*** at Tue May 10 16:33:57 2022

   => Loading Basis Set <=

    Name: CC-PVTZ
    Role: ORBITAL
    Keyword: BASIS
    atoms 1, 3 entry H          line    23 file /usr/local/pace-apps/manual/packages/psi4/1.3.2/intel-19.0.5/share/psi4/basis/cc-pvtz.gbs 
    atoms 2    entry O          line   262 file /usr/local/pace-apps/manual/packages/psi4/1.3.2/intel-19.0.5/share/psi4/basis/cc-pvtz.gbs 


         ---------------------------------------------------------
                                   SCF
               by Justin Turney, Rob Parrish, Andy Simmonett
                          and Daniel G. A. Smith
                              RHF Reference
                        1 Threads,   9536 MiB Core
         ---------------------------------------------------------

  ==> Geometry <==

    Molecular point group: cs
    Full point group: Cs

    Geometry (in Angstrom), charge = 0, multiplicity = 1:

       Center              X                  Y                   Z               Mass       
    ------------   -----------------  -----------------  -----------------  -----------------
         H            0.000000000000     0.749715540418    -0.501577691223     1.007825032230
         O            0.000000000000     0.000180453542     0.063343883240    15.994914619570
         H            0.000000000000    -0.752579469081    -0.503735703165     1.007825032230

  Running in cs symmetry.

  Rotational constants: A =     29.39717  B =     14.82251  C =      9.85398 [cm^-1]
  Rotational constants: A = 881305.08224  B = 444367.81640  C = 295414.96653 [MHz]
  Nuclear repulsion =    9.354568389551744

  Charge       = 0
  Multiplicity = 1
  Electrons    = 10
  Nalpha       = 5
  Nbeta        = 5

  ==> Algorithm <==

  SCF Algorithm Type is DF.
  DIIS enabled.
  MOM disabled.
  Fractional occupation disabled.
  Guess Type is SAD.
  Energy threshold   = 1.00e-08
  Density threshold  = 1.00e-08
  Integral threshold = 0.00e+00

  ==> Primary Basis <==

  Basis Set: CC-PVTZ
    Blend: CC-PVTZ
    Number of shells: 22
    Number of basis function: 58
    Number of Cartesian functions: 65
    Spherical Harmonics?: true
    Max angular momentum: 3

   => Loading Basis Set <=

    Name: (CC-PVTZ AUX)
    Role: JKFIT
    Keyword: DF_BASIS_SCF
    atoms 1, 3 entry H          line    51 file /usr/local/pace-apps/manual/packages/psi4/1.3.2/intel-19.0.5/share/psi4/basis/cc-pvtz-jkfit.gbs 
    atoms 2    entry O          line   229 file /usr/local/pace-apps/manual/packages/psi4/1.3.2/intel-19.0.5/share/psi4/basis/cc-pvtz-jkfit.gbs 

  ==> Pre-Iterations <==

   -------------------------------------------------------
    Irrep   Nso     Nmo     Nalpha   Nbeta   Ndocc  Nsocc
   -------------------------------------------------------
     A'        40      40       0       0       0       0
     A"        18      18       0       0       0       0
   -------------------------------------------------------
    Total      58      58       5       5       5       0
   -------------------------------------------------------

  ==> Integral Setup <==

  DFHelper Memory: AOs need 0.004 GiB; user supplied 6.985 GiB. Using in-core AOs.

  ==> MemDFJK: Density-Fitted J/K Matrices <==

    J tasked:                   Yes
    K tasked:                   Yes
    wK tasked:                   No
    OpenMP threads:               1
    Memory [MiB]:              7152
    Algorithm:                 Core
    Schwarz Cutoff:           1E-12
    Mask sparsity (%):       0.0000
    Fitting Condition:        1E-10

   => Auxiliary Basis Set <=

  Basis Set: (CC-PVTZ AUX)
    Blend: CC-PVTZ-JKFIT
    Number of shells: 45
    Number of basis function: 139
    Number of Cartesian functions: 166
    Spherical Harmonics?: true
    Max angular momentum: 4

  Minimum eigenvalue in the overlap matrix is 2.3465835106E-03.
  Using Symmetric Orthogonalization.

  SCF Guess: Superposition of Atomic Densities via on-the-fly atomic UHF.

  ==> Iterations <==

                           Total Energy        Delta E     RMS |[F,P]|

   @DF-RHF iter SAD:   -75.51987833263887   -7.55199e+01   0.00000e+00 
   @DF-RHF iter   1:   -75.98027561752104   -4.60397e-01   1.03326e-02 DIIS
   @DF-RHF iter   2:   -76.03302708502625   -5.27515e-02   6.52754e-03 DIIS
   @DF-RHF iter   3:   -76.05736674997584   -2.43397e-02   4.84405e-04 DIIS
   @DF-RHF iter   4:   -76.05773217777320   -3.65428e-04   1.13805e-04 DIIS
   @DF-RHF iter   5:   -76.05775324906386   -2.10713e-05   2.34421e-05 DIIS
   @DF-RHF iter   6:   -76.05775458915969   -1.34010e-06   4.61759e-06 DIIS
   @DF-RHF iter   7:   -76.05775464381178   -5.46521e-08   7.74716e-07 DIIS
   @DF-RHF iter   8:   -76.05775464510197   -1.29019e-09   1.16629e-07 DIIS
   @DF-RHF iter   9:   -76.05775464513084   -2.88765e-11   3.16934e-08 DIIS
   @DF-RHF iter  10:   -76.05775464513287   -2.03215e-12   4.00296e-09 DIIS
  Energy and wave function converged.


  ==> Post-Iterations <==

    Orbital Energies [Eh]
    ---------------------

    Doubly Occupied:                                                      

       1Ap   -20.551010     2Ap    -1.353350     3Ap    -0.721991  
       4Ap    -0.577902     1App   -0.505391  

    Virtual:                                                              

       5Ap     0.144327     6Ap     0.205179     7Ap     0.553691  
       8Ap     0.606556     9Ap     0.666786     2App    0.787506  
      10Ap     0.805106    11Ap     0.811497     3App    0.861574  
       4App    0.964013    12Ap     1.118742    13Ap     1.202723  
      14Ap     1.546173    15Ap     1.589491    16Ap     2.031045  
       5App    2.037087     6App    2.075973    17Ap     2.171732  
      18Ap     2.232203    19Ap     2.610016    20Ap     2.973638  
       7App    3.371324    21Ap     3.508483     8App    3.582923  
      22Ap     3.670246     9App    3.817158    23Ap     3.887023  
      24Ap     3.900800    10App    3.968396    11App    4.026392  
      25Ap     4.087660    26Ap     4.212891    12App    4.349996  
      27Ap     4.429020    28Ap     4.599222    13App    4.703445  
      29Ap     4.910530    30Ap     5.212244    31Ap     5.270349  
      32Ap     5.547785    14App    6.083742    33Ap     6.617027  
      15App    6.966035    16App    6.974837    17App    7.039011  
      34Ap     7.063848    35Ap     7.158775    36Ap     7.177452  
      18App    7.280593    37Ap     7.488218    38Ap     7.839151  
      39Ap     8.357729    40Ap    13.168677  

    Final Occupation by Irrep:
             Ap   App 
    DOCC [     4,    1 ]

  @DF-RHF Final Energy:   -76.05775464513287

   => Energetics <=

    Nuclear Repulsion Energy =              9.3545683895517442
    One-Electron Energy =                -123.4053562161230957
    Two-Electron Energy =                  37.9930331814384772
    Total Energy =                        -76.0577546451328743

Computation Completed


Properties will be evaluated at   0.000000,   0.000000,   0.000000 [a0]

Properties computed using the SCF density matrix

  Nuclear Dipole Moment: [e a0]
     X:     0.0000      Y:    -0.0027      Z:    -0.9421

  Electronic Dipole Moment: [e a0]
     X:     0.0000      Y:     0.0013      Z:     0.1601

  Dipole Moment: [e a0]
     X:     0.0000      Y:    -0.0014      Z:    -0.7820     Total:     0.7820

  Dipole Moment: [D]
     X:     0.0000      Y:    -0.0035      Z:    -1.9877     Total:     1.9877


*** tstop() called on atl1-1-02-012-5-l.pace.gatech.edu at Tue May 10 16:33:57 2022
Module time:
	user time   =       0.34 seconds =       0.01 minutes
	system time =       0.00 seconds =       0.00 minutes
	total time  =          0 seconds =       0.00 minutes
Total time:
	user time   =       7.17 seconds =       0.12 minutes
	system time =       0.41 seconds =       0.01 minutes
	total time  =         10 seconds =       0.17 minutes

*** tstart() called on atl1-1-02-012-5-l.pace.gatech.edu
*** at Tue May 10 16:33:57 2022


         ------------------------------------------------------------
                                   SCF GRAD                          
                          Rob Parrish, Justin Turney,                
                       Andy Simmonett, and Alex Sokolov              
         ------------------------------------------------------------

  ==> Geometry <==

    Molecular point group: cs
    Full point group: Cs

    Geometry (in Angstrom), charge = 0, multiplicity = 1:

       Center              X                  Y                   Z               Mass       
    ------------   -----------------  -----------------  -----------------  -----------------
         H            0.000000000000     0.749715540418    -0.501577691223     1.007825032230
         O            0.000000000000     0.000180453542     0.063343883240    15.994914619570
         H            0.000000000000    -0.752579469081    -0.503735703165     1.007825032230

  Nuclear repulsion =    9.354568389551744

  ==> Basis Set <==

  Basis Set: CC-PVTZ
    Blend: CC-PVTZ
    Number of shells: 22
    Number of basis function: 58
    Number of Cartesian functions: 65
    Spherical Harmonics?: true
    Max angular momentum: 3

  ==> DFJKGrad: Density-Fitted SCF Gradients <==

    Gradient:                    1
    J tasked:                  Yes
    K tasked:                  Yes
    wK tasked:                  No
    OpenMP threads:              1
    Integrals threads:           1
    Memory [MiB]:             7152
    Schwarz Cutoff:          0E+00
    Fitting Condition:       1E-10

   => Auxiliary Basis Set <=

  Basis Set: (CC-PVTZ AUX)
    Blend: CC-PVTZ-JKFIT
    Number of shells: 45
    Number of basis function: 139
    Number of Cartesian functions: 166
    Spherical Harmonics?: true
    Max angular momentum: 4


  -Total Gradient:
     Atom            X                  Y                   Z
    ------   -----------------  -----------------  -----------------
       1        0.000000000000    -0.001938322853     0.001459092580
       2        0.000000000000     0.003690271611    -0.000137484286
       3        0.000000000000    -0.001751948758    -0.001321608294


*** tstop() called on atl1-1-02-012-5-l.pace.gatech.edu at Tue May 10 16:33:57 2022
Module time:
	user time   =       0.19 seconds =       0.00 minutes
	system time =       0.03 seconds =       0.00 minutes
	total time  =          0 seconds =       0.00 minutes
Total time:
	user time   =       7.36 seconds =       0.12 minutes
	system time =       0.44 seconds =       0.01 minutes
	total time  =         10 seconds =       0.17 minutes

         ----------------------------------------------------------
                                   FINDIF
                     R. A. King and Jonathon Misiewicz
         ---------------------------------------------------------

  Computing second-derivative from gradients using projected, 
  symmetry-adapted, cartesian coordinates.

  6 gradients passed in, including the reference geometry.
  Generating complete list of displacements from unique ones.

    Operation 2 takes plus displacements of irrep B2 to minus ones.

-------------------------------------------------------------


  ==> Harmonic Vibrational Analysis <==

  non-mass-weighted Hessian:       Symmetric? True   Hermitian? True   Lin Dep Dim?  6 (0)
  projection of translations (True) and rotations (True) removed 6 degrees of freedom (6)
  total projector:                 Symmetric? True   Hermitian? True   Lin Dep Dim?  6 (6)
  mass-weighted Hessian:           Symmetric? True   Hermitian? True   Lin Dep Dim?  6 (0)
  pre-proj  low-frequency mode:    0.0000i [cm^-1]
  pre-proj  low-frequency mode:    0.0000i [cm^-1]
  pre-proj  low-frequency mode:    0.0000i [cm^-1]
  pre-proj  low-frequency mode:    0.0000  [cm^-1]
  pre-proj  low-frequency mode:    0.0000  [cm^-1]
  pre-proj  low-frequency mode:    0.0000  [cm^-1]
  pre-proj  all modes:['0.0001i' '0.0000i' '0.0000i' '0.0000' '0.0000' '0.0000' '1752.7590'
 '4128.2388' '4228.2539']
  projected mass-weighted Hessian: Symmetric? True   Hermitian? True   Lin Dep Dim?  6 (6)
  post-proj low-frequency mode:    0.0000i [cm^-1] (TR)
  post-proj low-frequency mode:    0.0000i [cm^-1] (TR)
  post-proj low-frequency mode:    0.0000i [cm^-1] (TR)
  post-proj low-frequency mode:    0.0000i [cm^-1] (TR)
  post-proj low-frequency mode:    0.0000  [cm^-1] (TR)
  post-proj low-frequency mode:    0.0000  [cm^-1] (TR)
  post-proj  all modes:['0.0000i' '0.0000i' '0.0000i' '0.0000i' '0.0000' '0.0000' '1752.7590'
 '4128.2388' '4228.2539']

  Vibration                       7                   8                   9           
  Freq [cm^-1]                1752.7590           4128.2388           4228.2539       
  Irrep                           A1                  A1                  B2          
  Reduced mass [u]              1.0830              1.0448              1.0833        
  Force const [mDyne/A]         1.9604             10.4912             11.4114        
  Turning point v=0 [a0]        0.2518              0.1671              0.1621        
  RMS dev v=0 [a0 u^1/2]        0.1853              0.1208              0.1193        
  Char temp [K]               2521.8300           5939.6165           6083.5160       
  ----------------------------------------------------------------------------------
      1   H                0.00  0.43  0.56   -0.00  0.59 -0.39    0.00  0.56 -0.42   
      2   O               -0.00  0.00 -0.07   -0.00 -0.00  0.05   -0.00 -0.07 -0.00   
      3   H                0.00 -0.43  0.56    0.00 -0.59 -0.39    0.00  0.56  0.42   

  ==> Thermochemistry Components <==

  Entropy, S
    Electronic S            0.000 [cal/(mol K)]        0.000 [J/(mol K)]       0.00000000 [mEh/K] (multiplicity = 1)
    Translational S        34.608 [cal/(mol K)]      144.801 [J/(mol K)]       0.05515177 [mEh/K] (mol. weight = 18.0106 [u], P = 101325.00 [Pa])
    Rotational S           10.328 [cal/(mol K)]       43.214 [J/(mol K)]       0.01645938 [mEh/K] (symmetry no. = 2)
    Vibrational S           0.004 [cal/(mol K)]        0.017 [J/(mol K)]       0.00000636 [mEh/K]
  Total S                  44.941 [cal/(mol K)]      188.032 [J/(mol K)]       0.07161751 [mEh/K]
  Correction S              0.000 [cal/(mol K)]        0.000 [J/(mol K)]       0.00000000 [mEh/K]

  Constant volume heat capacity, Cv
    Electronic Cv           0.000 [cal/(mol K)]        0.000 [J/(mol K)]       0.00000000 [mEh/K]
    Translational Cv        2.981 [cal/(mol K)]       12.472 [J/(mol K)]       0.00475022 [mEh/K]
    Rotational Cv           2.981 [cal/(mol K)]       12.472 [J/(mol K)]       0.00475022 [mEh/K]
    Vibrational Cv          0.030 [cal/(mol K)]        0.126 [J/(mol K)]       0.00004809 [mEh/K]
  Total Cv                  5.992 [cal/(mol K)]       25.070 [J/(mol K)]       0.00954852 [mEh/K]
  Correction Cv             0.000 [cal/(mol K)]        0.000 [J/(mol K)]       0.00000000 [mEh/K]

  Constant pressure heat capacity, Cp
    Electronic Cp           0.000 [cal/(mol K)]        0.000 [J/(mol K)]       0.00000000 [mEh/K]
    Translational Cp        4.968 [cal/(mol K)]       20.786 [J/(mol K)]       0.00791703 [mEh/K]
    Rotational Cp           2.981 [cal/(mol K)]       12.472 [J/(mol K)]       0.00475022 [mEh/K]
    Vibrational Cp          0.030 [cal/(mol K)]        0.126 [J/(mol K)]       0.00004809 [mEh/K]
  Total Cp                  7.979 [cal/(mol K)]       33.384 [J/(mol K)]       0.01271533 [mEh/K]
  Correction Cp             0.000 [cal/(mol K)]        0.000 [J/(mol K)]       0.00000000 [mEh/K]

  ==> Thermochemistry Energy Analysis <==

  Raw electronic energy, E0
  Total E0, Electronic energy at well bottom at 0 [K]                  -76.05776310 [Eh]

  Zero-point energy, ZPE_vib = Sum_i nu_i / 2
    Electronic ZPE          0.000 [kcal/mol]        0.000 [kJ/mol]       0.00000000 [Eh]
    Translational ZPE       0.000 [kcal/mol]        0.000 [kJ/mol]       0.00000000 [Eh]
    Rotational ZPE          0.000 [kcal/mol]        0.000 [kJ/mol]       0.00000000 [Eh]
    Vibrational ZPE        14.452 [kcal/mol]       60.467 [kJ/mol]       0.02303057 [Eh]        5054.626 [cm^-1]
  Correction ZPE           14.452 [kcal/mol]       60.467 [kJ/mol]       0.02303057 [Eh]        5054.626 [cm^-1]
  Total ZPE, Electronic energy at 0 [K]                                -76.03473253 [Eh]

  Thermal Energy, E (includes ZPE)
    Electronic E            0.000 [kcal/mol]        0.000 [kJ/mol]       0.00000000 [Eh]
    Translational E         0.889 [kcal/mol]        3.718 [kJ/mol]       0.00141628 [Eh]
    Rotational E            0.889 [kcal/mol]        3.718 [kJ/mol]       0.00141628 [Eh]
    Vibrational E          14.453 [kcal/mol]       60.471 [kJ/mol]       0.02303226 [Eh]
  Correction E             16.230 [kcal/mol]       67.908 [kJ/mol]       0.02586482 [Eh]
  Total E, Electronic energy at  298.15 [K]                            -76.03189828 [Eh]

  Enthalpy, H_trans = E_trans + k_B * T
    Electronic H            0.000 [kcal/mol]        0.000 [kJ/mol]       0.00000000 [Eh]
    Translational H         1.481 [kcal/mol]        6.197 [kJ/mol]       0.00236046 [Eh]
    Rotational H            0.889 [kcal/mol]        3.718 [kJ/mol]       0.00141628 [Eh]
    Vibrational H          14.453 [kcal/mol]       60.471 [kJ/mol]       0.02303226 [Eh]
  Correction H             16.823 [kcal/mol]       70.387 [kJ/mol]       0.02680900 [Eh]
  Total H, Enthalpy at  298.15 [K]                                     -76.03095410 [Eh]

  Gibbs free energy, G = H - T * S
    Electronic G            0.000 [kcal/mol]        0.000 [kJ/mol]       0.00000000 [Eh]
    Translational G        -8.837 [kcal/mol]      -36.975 [kJ/mol]      -0.01408304 [Eh]
    Rotational G           -2.191 [kcal/mol]       -9.166 [kJ/mol]      -0.00349109 [Eh]
    Vibrational G          14.452 [kcal/mol]       60.466 [kJ/mol]       0.02303037 [Eh]
  Correction G              3.424 [kcal/mol]       14.325 [kJ/mol]       0.00545624 [Eh]
  Total G, Free enthalpy at  298.15 [K]                                -76.05230686 [Eh]

    Psi4 stopped on: Tuesday, 10 May 2022 04:33PM
    Psi4 wall time for execution: 0:00:10.21

*** Psi4 exiting successfully. Buy a developer a beer!
